/*--------------------------------*- C++ -*----------------------------------*\
  =========                 |
  \\      /  F ield         | OpenFOAM: The Open Source CFD Toolbox
   \\    /   O peration     | Website:  https://openfoam.org
    \\  /    A nd           | Version:  6
     \\/     M anipulation  |
\*---------------------------------------------------------------------------*/
FoamFile
{
    version     2.0;
    format      ascii;
    class       volScalarField;
    location    "200";
    object      p;
}
// * * * * * * * * * * * * * * * * * * * * * * * * * * * * * * * * * * * * * //

dimensions      [0 2 -2 0 0 0 0];

internalField   nonuniform List<scalar> 
78400
(
0.00937066
0.00935345
0.00932242
0.00928126
0.00923241
0.00917846
0.00912099
0.00906174
0.00900168
0.00894193
0.00888301
0.00882562
0.00877002
0.00871658
0.0086654
0.00861666
0.00857036
0.00852656
0.00848518
0.00844622
0.00840958
0.00837519
0.00834295
0.00831278
0.00828456
0.0082582
0.0082336
0.00821065
0.00818927
0.00816935
0.0081508
0.00813354
0.00811749
0.00810257
0.0080887
0.00807581
0.00806384
0.00805272
0.0080424
0.00803282
0.00939257
0.00937498
0.0093434
0.00930155
0.00925194
0.00919718
0.00913889
0.00907882
0.00901796
0.00895743
0.00889777
0.00883967
0.0087834
0.00872934
0.00867757
0.00862829
0.00858148
0.0085372
0.00849539
0.00845603
0.00841901
0.00838428
0.00835173
0.00832126
0.00829278
0.00826617
0.00824134
0.00821818
0.0081966
0.0081765
0.00815779
0.00814039
0.0081242
0.00810914
0.00809515
0.00808216
0.00807008
0.00805887
0.00804847
0.00803881
0.00943559
0.00941762
0.00938535
0.0093426
0.00929192
0.00923599
0.00917647
0.00911515
0.00905304
0.00899128
0.00893044
0.0088712
0.00881384
0.00875875
0.00870601
0.00865583
0.00860817
0.00856311
0.00852057
0.00848053
0.00844289
0.00840758
0.00837449
0.00834353
0.00831458
0.00828756
0.00826234
0.00823882
0.00821691
0.00819651
0.00817752
0.00815985
0.00814343
0.00812815
0.00811396
0.00810078
0.00808853
0.00807716
0.00806661
0.00805681
0.00949614
0.00947754
0.00944418
0.0094
0.00934766
0.00928992
0.00922852
0.00916528
0.00910126
0.00903762
0.00897497
0.008914
0.00885499
0.00879835
0.00874415
0.0086926
0.00864367
0.00859742
0.00855378
0.00851271
0.00847413
0.00843794
0.00840405
0.00837234
0.00834271
0.00831506
0.00828925
0.0082652
0.0082428
0.00822194
0.00820252
0.00818447
0.00816768
0.00815208
0.00813759
0.00812412
0.00811162
0.00810001
0.00808923
0.00807924
0.00957463
0.00955533
0.00952068
0.00947481
0.00942048
0.00936057
0.00929686
0.00923128
0.00916491
0.00909898
0.00903409
0.00897098
0.00890993
0.00885135
0.00879534
0.00874208
0.00869155
0.00864382
0.0085988
0.00855647
0.00851669
0.00847942
0.00844451
0.00841188
0.00838139
0.00835294
0.0083264
0.00830168
0.00827865
0.00825722
0.00823728
0.00821874
0.0082015
0.00818549
0.00817061
0.0081568
0.00814397
0.00813206
0.00812101
0.00811076
0.00966774
0.00964751
0.00961126
0.00956326
0.00950644
0.00944379
0.00937721
0.0093087
0.00923941
0.0091706
0.00910292
0.00903712
0.00897352
0.00891252
0.00885423
0.00879884
0.00874633
0.00869675
0.00865001
0.00860607
0.00856483
0.00852619
0.00849002
0.00845622
0.00842466
0.00839522
0.00836777
0.0083422
0.0083184
0.00829626
0.00827566
0.00825651
0.00823872
0.00822219
0.00820683
0.00819258
0.00817935
0.00816707
0.00815567
0.0081451
0.00977628
0.00975505
0.00971699
0.0096666
0.00960695
0.00954119
0.00947133
0.00939946
0.00932681
0.00925469
0.0091838
0.00911491
0.00904835
0.00898456
0.00892363
0.00886577
0.00881095
0.00875921
0.00871047
0.00866468
0.00862172
0.00858149
0.00854386
0.0085087
0.00847589
0.0084453
0.00841679
0.00839025
0.00836554
0.00834257
0.00832121
0.00830135
0.00828291
0.00826578
0.00824988
0.00823511
0.00822141
0.0082087
0.0081969
0.00818596
0.00989737
0.00987495
0.0098348
0.00978162
0.0097187
0.00964933
0.00957568
0.00949991
0.00942335
0.00934738
0.00927274
0.00920024
0.00913024
0.00906318
0.00899918
0.00893842
0.0088809
0.00882665
0.00877557
0.00872761
0.00868263
0.00864055
0.0086012
0.00856446
0.00853019
0.00849825
0.0084685
0.00844081
0.00841505
0.0083911
0.00836885
0.00834817
0.00832896
0.00831113
0.00829458
0.00827923
0.00826498
0.00825176
0.0082395
0.00822813
0.0100319
0.0100082
0.00996577
0.00990956
0.00984304
0.00976971
0.00969185
0.00961176
0.00953086
0.00945061
0.00937178
0.00929525
0.00922139
0.00915067
0.0090832
0.0090192
0.00895864
0.00890155
0.00884784
0.00879743
0.00875019
0.00870601
0.00866472
0.0086262
0.00859027
0.00855681
0.00852566
0.00849668
0.00846974
0.00844469
0.00842143
0.00839982
0.00837976
0.00836114
0.00834386
0.00832783
0.00831297
0.00829918
0.00828639
0.00827454
0.0101774
0.0101523
0.0101073
0.0100477
0.00997721
0.00989946
0.00981692
0.00973201
0.00964625
0.00956118
0.00947766
0.00939658
0.00931838
0.00924352
0.00917215
0.00910448
0.00904048
0.00898018
0.00892348
0.0088703
0.00882049
0.00877393
0.00873044
0.00868989
0.0086521
0.00861691
0.00858417
0.00855372
0.00852543
0.00849914
0.00847473
0.00845206
0.00843103
0.00841152
0.00839341
0.00837662
0.00836105
0.00834662
0.00833324
0.00832083
0.0103347
0.0103081
0.0102604
0.0101972
0.0101224
0.0100399
0.0099523
0.00986216
0.00977112
0.0096808
0.00959214
0.00950609
0.0094231
0.00934369
0.00926802
0.00919629
0.00912848
0.00906463
0.00900462
0.00894836
0.0088957
0.0088465
0.00880058
0.00875777
0.0087179
0.00868079
0.00864628
0.00861421
0.00858441
0.00855674
0.00853106
0.00850722
0.00848511
0.0084646
0.00844558
0.00842795
0.0084116
0.00839644
0.0083824
0.00836939
0.0105016
0.0104734
0.0104228
0.0103557
0.0102763
0.0101887
0.0100956
0.00999975
0.00990294
0.00980688
0.00971257
0.00962104
0.00953279
0.00944835
0.0093679
0.00929167
0.00921965
0.00915185
0.00908815
0.00902847
0.00897264
0.00892049
0.00887185
0.00882653
0.00878433
0.00874508
0.0087086
0.00867471
0.00864323
0.00861402
0.00858691
0.00856177
0.00853845
0.00851683
0.00849678
0.0084782
0.00846099
0.00844503
0.00843025
0.00841655
0.0106789
0.010649
0.0105954
0.0105243
0.01044
0.0103469
0.010248
0.0101461
0.0100431
0.00994088
0.00984049
0.00974303
0.00964907
0.00955916
0.00947352
0.00939238
0.00931574
0.00924361
0.00917588
0.00911245
0.00905312
0.00899774
0.0089461
0.00889801
0.00885326
0.00881166
0.008773
0.0087371
0.00870378
0.00867287
0.00864419
0.0086176
0.00859295
0.0085701
0.00854893
0.00852931
0.00851114
0.0084943
0.0084787
0.00846425
0.0108646
0.010833
0.0107762
0.0107008
0.0106115
0.0105126
0.0104075
0.0102992
0.0101896
0.0100807
0.00997375
0.00986988
0.00976972
0.00967386
0.00958255
0.00949604
0.00941434
0.00933747
0.00926531
0.00919774
0.00913457
0.00907562
0.00902068
0.00896953
0.00892196
0.00887775
0.00883668
0.00879857
0.0087632
0.0087304
0.00869999
0.0086718
0.00864568
0.00862148
0.00859906
0.00857828
0.00855905
0.00854123
0.00852473
0.00850945
0.0110593
0.0110259
0.0109659
0.0108862
0.0107915
0.0106868
0.0105752
0.0104601
0.0103435
0.0102276
0.0101137
0.010003
0.00989617
0.00979391
0.00969649
0.00960418
0.009517
0.00943498
0.00935799
0.00928591
0.00921855
0.00915571
0.00909715
0.00904267
0.008992
0.00894493
0.00890124
0.00886069
0.00882308
0.00878822
0.0087559
0.00872596
0.00869822
0.00867253
0.00864873
0.0086267
0.00860629
0.0085874
0.00856991
0.00855372
0.0112613
0.011226
0.0111628
0.0110786
0.0109786
0.0108677
0.0107494
0.0106272
0.0105033
0.01038
0.0102586
0.0101406
0.0100267
0.00991754
0.00981352
0.00971493
0.0096218
0.00953418
0.00945193
0.00937495
0.009303
0.0092359
0.00917339
0.00911524
0.00906118
0.00901098
0.00896439
0.00892117
0.0088811
0.00884396
0.00880955
0.00877768
0.00874816
0.00872082
0.00869552
0.00867209
0.0086504
0.00863033
0.00861174
0.00859455
0.0114709
0.0114338
0.0113674
0.0112787
0.0111732
0.0110561
0.010931
0.0108014
0.0106699
0.0105389
0.0104097
0.010284
0.0101625
0.010046
0.00993498
0.00982965
0.00973013
0.00963647
0.00954854
0.00946624
0.00938932
0.00931759
0.00925078
0.00918864
0.00913089
0.00907727
0.00902751
0.00898137
0.00893861
0.00889898
0.00886228
0.0088283
0.00879683
0.0087677
0.00874074
0.00871578
0.00869269
0.00867132
0.00865154
0.00863324
0.0116866
0.0116478
0.0115781
0.011485
0.0113741
0.0112506
0.0111185
0.0109814
0.0108421
0.0107029
0.0105657
0.0104318
0.0103023
0.010178
0.0100595
0.00994691
0.00984052
0.00974034
0.00964628
0.00955821
0.00947591
0.00939915
0.00932765
0.00926116
0.00919937
0.00914201
0.0090888
0.00903947
0.00899375
0.00895141
0.00891219
0.00887589
0.00884229
0.00881119
0.00878241
0.00875578
0.00873114
0.00870835
0.00868726
0.00866774
0.0119085
0.011868
0.0117952
0.0116978
0.0115815
0.0114518
0.0113126
0.011168
0.0110206
0.0108732
0.0107275
0.0105851
0.0104472
0.0103147
0.0101882
0.010068
0.00995423
0.00984708
0.00974642
0.00965215
0.00956402
0.00948182
0.00940526
0.00933404
0.00926787
0.00920646
0.00914948
0.00909667
0.00904774
0.00900243
0.00896047
0.00892164
0.0088857
0.00885245
0.00882168
0.00879322
0.00876689
0.00874254
0.00872001
0.00869918
0.0121353
0.0120932
0.0120175
0.0119159
0.0117943
0.0116584
0.0115123
0.01136
0.0112045
0.0110485
0.0108941
0.0107429
0.0105963
0.0104551
0.0103201
0.0101917
0.0100702
0.00995557
0.00984784
0.00974688
0.00965248
0.0095644
0.00948234
0.009406
0.00933507
0.00926924
0.00920817
0.00915156
0.00909913
0.00905057
0.00900561
0.00896401
0.00892552
0.00888991
0.00885698
0.00882651
0.00879833
0.00877227
0.00874817
0.00872588
0.0123669
0.0123234
0.0122448
0.0121393
0.0120128
0.0118709
0.011718
0.0115581
0.0113944
0.0112298
0.0110664
0.0109062
0.0107504
0.0106003
0.0104564
0.0103194
0.0101896
0.010067
0.00995172
0.00984361
0.00974247
0.00964805
0.00956007
0.0094782
0.00940212
0.0093315
0.00926598
0.00920526
0.00914901
0.00909692
0.0090487
0.00900409
0.00896281
0.00892463
0.00888932
0.00885667
0.00882647
0.00879854
0.00877272
0.00874884
0.0126021
0.0125572
0.0124762
0.0123671
0.0122358
0.0120882
0.0119286
0.0117613
0.0115895
0.0114162
0.0112438
0.0110742
0.010909
0.0107494
0.0105963
0.0104502
0.0103116
0.0101806
0.0100573
0.00994153
0.00983316
0.00973193
0.00963756
0.00954972
0.00946807
0.00939225
0.00932192
0.00925672
0.00919631
0.00914038
0.00908861
0.00904071
0.0089964
0.00895541
0.00891751
0.00888246
0.00885005
0.00882009
0.00879238
0.00876676
0.0128407
0.0127947
0.0127114
0.012599
0.0124635
0.0123105
0.0121447
0.0119701
0.0117903
0.0116084
0.0114268
0.0112478
0.0110729
0.0109036
0.0107409
0.0105853
0.0104375
0.0102976
0.0101657
0.0100418
0.00992569
0.00981718
0.00971595
0.00962168
0.00953402
0.00945259
0.00937704
0.00930699
0.00924209
0.00918198
0.00912635
0.00907488
0.00902726
0.00898321
0.00894249
0.00890483
0.00887001
0.00883782
0.00880806
0.00878054
0.0130815
0.0130345
0.0129494
0.0128342
0.0126948
0.012537
0.0123652
0.0121837
0.0119961
0.0118057
0.011615
0.0114264
0.0112417
0.0110624
0.0108896
0.0107242
0.0105667
0.0104174
0.0102765
0.0101439
0.0100196
0.00990325
0.00979467
0.00969349
0.00959935
0.00951188
0.00943068
0.00935538
0.0092856
0.00922097
0.00916114
0.00910578
0.00905456
0.00900719
0.00896338
0.00892288
0.00888543
0.00885081
0.0088188
0.00878921
0.0133242
0.0132766
0.01319
0.0130724
0.0129298
0.0127676
0.0125903
0.0124024
0.0122074
0.0120086
0.0118089
0.0116108
0.0114161
0.0112266
0.0110436
0.0108679
0.0107003
0.0105412
0.0103907
0.010249
0.0101159
0.00999127
0.00987483
0.00976625
0.00966515
0.00957117
0.0094839
0.00940293
0.00932787
0.00925834
0.00919396
0.00913438
0.00907925
0.00902826
0.00898111
0.00893751
0.00889719
0.00885993
0.00882548
0.00879363
0.0135679
0.0135198
0.0134321
0.0133128
0.0131674
0.0130015
0.0128194
0.0126255
0.0124235
0.0122167
0.0120082
0.0118005
0.0115959
0.011396
0.0112025
0.0110162
0.0108381
0.0106687
0.0105082
0.0103568
0.0102145
0.010081
0.00995617
0.00983967
0.00973112
0.00963014
0.00953632
0.00944923
0.00936848
0.00929364
0.00922434
0.00916018
0.00910081
0.00904589
0.0089951
0.00894812
0.0089047
0.00886455
0.00882743
0.00879311
0.0138121
0.0137637
0.0136755
0.013555
0.0134076
0.0132386
0.0130524
0.0128532
0.0126447
0.0124303
0.0122133
0.0119963
0.0117817
0.0115714
0.0113671
0.0111701
0.0109811
0.010801
0.01063
0.0104685
0.0103164
0.0101735
0.0100398
0.00991485
0.00979833
0.00968986
0.009589
0.00949534
0.00940845
0.00932789
0.00925326
0.00918415
0.00912019
0.009061
0.00900626
0.00895563
0.00890882
0.00886553
0.00882551
0.00878851
0.0140559
0.0140076
0.0139193
0.0137982
0.0136495
0.0134783
0.0132886
0.0130848
0.0128704
0.012649
0.0124238
0.0121977
0.0119733
0.0117526
0.0115375
0.0113294
0.0111293
0.0109381
0.0107562
0.010584
0.0104216
0.0102689
0.0101257
0.00999177
0.00986675
0.00975026
0.00964186
0.00954114
0.00944763
0.00936091
0.00928053
0.00920607
0.00913714
0.00907334
0.00901431
0.00895971
0.00890922
0.00886253
0.00881935
0.00877944
0.0142989
0.014251
0.0141631
0.0140421
0.0138929
0.0137202
0.013528
0.0133203
0.0131008
0.0128729
0.0126401
0.0124054
0.0121713
0.0119403
0.0117143
0.011495
0.0112835
0.0110809
0.0108878
0.0107045
0.0105313
0.0103682
0.010215
0.0100715
0.00993748
0.00981243
0.00969598
0.00958769
0.00948709
0.00939373
0.00930716
0.00922694
0.00915264
0.00908385
0.00902019
0.00896129
0.00890681
0.00885642
0.00880983
0.00876674
0.0145404
0.014493
0.0144061
0.0142859
0.014137
0.0139637
0.0137698
0.0135591
0.0133353
0.0131017
0.0128619
0.0126189
0.0123755
0.0121344
0.0118976
0.011667
0.011444
0.0112297
0.0110249
0.0108301
0.0106456
0.0104716
0.0103079
0.0101544
0.0100107
0.00987655
0.00975151
0.00963512
0.00952692
0.00942645
0.00933322
0.00924679
0.0091667
0.00909253
0.00902386
0.00896031
0.00890152
0.00884713
0.00879682
0.00875029
0.0147798
0.0147334
0.0146479
0.0145292
0.0143814
0.0142085
0.0140139
0.0138012
0.0135739
0.0133355
0.0130893
0.0128386
0.0125865
0.0123355
0.012088
0.0118462
0.0116115
0.0113852
0.0111685
0.0109618
0.0107656
0.0105802
0.0104055
0.0102413
0.0100875
0.00994374
0.00980956
0.00968454
0.00956822
0.00946013
0.00935977
0.00926666
0.00918035
0.00910038
0.00902631
0.00895775
0.00889429
0.00883557
0.00878124
0.00873099
0.0150165
0.0149713
0.0148878
0.0147713
0.0146255
0.0144539
0.0142596
0.0140459
0.0138161
0.0135737
0.013322
0.0130644
0.0128039
0.0125434
0.0122856
0.0120325
0.0117861
0.0115479
0.0113189
0.0110999
0.0108917
0.0106944
0.0105081
0.0103328
0.0101684
0.0100144
0.00987049
0.0097363
0.00961133
0.00949509
0.00938709
0.00928683
0.00919384
0.00910763
0.00902775
0.00895377
0.00888528
0.00882189
0.00876323
0.00870895
0.0152502
0.0152065
0.0151255
0.0150119
0.0148689
0.0146996
0.0145066
0.014293
0.0140618
0.0138164
0.0135601
0.0132962
0.0130281
0.0127587
0.0124908
0.0122268
0.0119687
0.0117183
0.0114769
0.0112455
0.0110248
0.0108152
0.0106169
0.01043
0.0102543
0.0100896
0.00993544
0.00979152
0.00965735
0.00953244
0.00941629
0.00930839
0.00920823
0.00911533
0.00902922
0.00894942
0.00887551
0.00880708
0.00874374
0.00868511
0.0154802
0.0154382
0.0153602
0.0152503
0.015111
0.0149449
0.0147543
0.0145419
0.0143104
0.014063
0.0138031
0.0135339
0.0132589
0.0129812
0.0127037
0.012429
0.0121595
0.011897
0.011643
0.0113989
0.0111654
0.0109431
0.0107324
0.0105333
0.0103459
0.0101699
0.0100049
0.00985074
0.00970682
0.0095727
0.00944787
0.00933181
0.009224
0.00912394
0.00903113
0.0089451
0.00886537
0.00879152
0.00872314
0.00865983
0.0157062
0.0156663
0.0155918
0.0154861
0.0153514
0.0151895
0.0150024
0.0147922
0.0145617
0.0143135
0.014051
0.0137775
0.0134965
0.0132111
0.0129245
0.0126396
0.0123589
0.0120844
0.011818
0.011561
0.0113145
0.0110792
0.0108556
0.0106439
0.0104443
0.0102564
0.0100802
0.00991513
0.00976091
0.00961702
0.00948297
0.00935823
0.00924228
0.00913457
0.00903461
0.00894189
0.00885592
0.00877626
0.00870246
0.00863412
0.0159278
0.0158902
0.0158196
0.0157189
0.0155895
0.0154328
0.0152503
0.0150435
0.014815
0.0145672
0.0143033
0.0140265
0.0137404
0.0134482
0.0131534
0.0128587
0.0125671
0.0122809
0.012002
0.0117321
0.0114724
0.0112239
0.0109871
0.0107624
0.01055
0.0103499
0.0101617
0.00998534
0.00982027
0.00966608
0.00952228
0.00938833
0.0092637
0.00914785
0.00904026
0.0089404
0.00884776
0.00876187
0.00868227
0.00860852
0.0161447
0.0161096
0.0160434
0.0159482
0.015825
0.0156744
0.0154975
0.0152953
0.01507
0.0148239
0.0145598
0.0142809
0.0139908
0.0136928
0.0133903
0.0130866
0.0127847
0.012487
0.0121958
0.011913
0.0116401
0.0113781
0.0111278
0.0108898
0.0106643
0.0104514
0.0102509
0.0100626
0.0098861
0.00972106
0.00956696
0.00942327
0.00928945
0.00916496
0.00904925
0.00894178
0.00884203
0.00874949
0.00866368
0.00858414
0.0163565
0.0163241
0.0162628
0.0161737
0.0160574
0.0159138
0.0157435
0.0155471
0.0153263
0.015083
0.01482
0.0145402
0.0142472
0.0139444
0.0136353
0.0133233
0.0130115
0.0127028
0.0123997
0.0121042
0.011818
0.0115424
0.0112784
0.0110268
0.0107878
0.0105616
0.0103482
0.0101475
0.00995918
0.00978276
0.00961783
0.00946386
0.00932034
0.00918669
0.00906237
0.00894681
0.00883948
0.00873986
0.00864743
0.00856171
0.0165631
0.0165336
0.0164774
0.0163951
0.0162864
0.0161506
0.0159879
0.0157984
0.0155833
0.0153441
0.0150835
0.0148041
0.0145095
0.0142029
0.0138882
0.0135688
0.013248
0.0129288
0.0126141
0.0123061
0.0120068
0.0117176
0.0114398
0.0111742
0.0109214
0.0106816
0.010455
0.0102415
0.0100407
0.00985237
0.00967608
0.00951133
0.00935757
0.00921426
0.00908082
0.0089567
0.00884133
0.00873418
0.0086347
0.0085424
0.0167641
0.0167378
0.0166871
0.0166119
0.0165114
0.0163844
0.0162303
0.0160487
0.0158405
0.0156068
0.0153498
0.0150722
0.0147771
0.0144681
0.0141489
0.0138229
0.0134939
0.013165
0.0128393
0.0125191
0.0122068
0.0119041
0.0116124
0.0113328
0.0110659
0.0108123
0.010572
0.0103451
0.0101315
0.00993077
0.00974262
0.00956656
0.00940206
0.00924857
0.00910553
0.00897236
0.00884849
0.00873335
0.00862639
0.0085271
0.0169596
0.0169365
0.0168916
0.016824
0.0167324
0.0166147
0.0164701
0.0162976
0.0160974
0.0158704
0.0156185
0.0153439
0.0150499
0.0147397
0.0144171
0.0140858
0.0137495
0.0134116
0.0130754
0.0127436
0.0124187
0.0121027
0.0117971
0.0115034
0.0112223
0.0109544
0.0107002
0.0104596
0.0102327
0.0100191
0.00981863
0.00963077
0.00945503
0.00929088
0.00913774
0.00899504
0.0088622
0.00873862
0.00862375
0.00851705
0.0171492
0.0171295
0.0170907
0.0170311
0.0169488
0.0168413
0.016707
0.0165445
0.0163535
0.0161345
0.0158889
0.0156188
0.0153271
0.0150171
0.0146924
0.0143569
0.0140144
0.0136685
0.0133226
0.0129797
0.0126426
0.0123135
0.0119943
0.0116865
0.011391
0.0111088
0.0108403
0.0105857
0.0103451
0.0101183
0.00990506
0.00970493
0.00951748
0.00934217
0.00917846
0.00902576
0.00888347
0.00875101
0.0086278
0.00851326
0.017333
0.0173168
0.0172842
0.017233
0.0171606
0.0170638
0.0169406
0.016789
0.0166084
0.0163985
0.0161606
0.0158963
0.0156084
0.0152999
0.0149746
0.0146362
0.0142886
0.0139356
0.0135809
0.0132277
0.012879
0.0125372
0.0122046
0.0118828
0.011573
0.0112764
0.0109934
0.0107246
0.01047
0.0102295
0.010003
0.00979022
0.0095906
0.00940368
0.00922893
0.00906577
0.00891359
0.0087718
0.0086398
0.00851702
0.0175109
0.0174982
0.0174721
0.0174295
0.0173674
0.0172819
0.0171706
0.0170308
0.0168614
0.0166619
0.0164329
0.0161759
0.0158932
0.0155877
0.0152631
0.0149231
0.0145717
0.0142128
0.0138502
0.0134875
0.0131279
0.012774
0.0124283
0.0120927
0.0117687
0.0114576
0.0111601
0.0108768
0.0106079
0.0103535
0.0101135
0.0098876
0.0096754
0.00947644
0.00929021
0.00911613
0.00895362
0.00880207
0.00866087
0.00852943
0.0176829
0.0176738
0.0176543
0.0176206
0.017569
0.0174953
0.0173965
0.0172693
0.0171123
0.0169242
0.0167054
0.0164569
0.0161808
0.0158798
0.0155574
0.0152172
0.0148633
0.0144997
0.0141305
0.0137592
0.0133894
0.013024
0.0126657
0.0123167
0.0119788
0.0116533
0.0113412
0.0110434
0.01076
0.0104914
0.0102376
0.0099982
0.00977303
0.00956163
0.0093635
0.0091781
0.00900484
0.00884311
0.00869229
0.00855178
0.0178488
0.0178435
0.0178307
0.017806
0.0177654
0.0177039
0.0176181
0.0175042
0.0173604
0.0171848
0.0169774
0.0167388
0.0164708
0.0161757
0.0158569
0.015518
0.015163
0.0147961
0.0144213
0.0140425
0.0136634
0.0132873
0.0129171
0.0125552
0.0122036
0.0118639
0.0115373
0.0112249
0.010927
0.010644
0.010376
0.0101229
0.00988445
0.00966026
0.00944986
0.00925274
0.00906833
0.00889602
0.0087352
0.00858524
0.0180089
0.0180073
0.0180013
0.0179858
0.0179563
0.0179074
0.0178351
0.0177352
0.0176054
0.0174433
0.0172485
0.017021
0.0167624
0.0164747
0.0161611
0.0158249
0.0154703
0.0151014
0.0147224
0.0143373
0.01395
0.013564
0.0131826
0.0128083
0.0124434
0.0120899
0.011749
0.011422
0.0111095
0.0108121
0.0105298
0.0102628
0.0100107
0.00977342
0.00955042
0.00934124
0.00914531
0.00896205
0.00879084
0.00863107
0.0181631
0.0181652
0.018166
0.0181598
0.0181417
0.0181056
0.0180472
0.017962
0.0178468
0.0176991
0.0175179
0.0173028
0.017055
0.0167761
0.0164692
0.0161373
0.0157846
0.0154151
0.0150332
0.0146431
0.0142487
0.0138539
0.0134621
0.0130761
0.0126986
0.0123315
0.0119767
0.0116353
0.0113083
0.0109963
0.0106997
0.0104185
0.0101527
0.00990206
0.00966617
0.0094446
0.00923683
0.00904228
0.00886035
0.00869041
0.0183115
0.0183174
0.018325
0.0183282
0.0183214
0.0182984
0.0182544
0.0181842
0.0180844
0.0179519
0.0177853
0.0175837
0.017348
0.0170794
0.0167805
0.0164545
0.0161053
0.0157368
0.0153534
0.0149595
0.0145594
0.0141568
0.0137555
0.0133587
0.0129691
0.0125892
0.0122207
0.0118652
0.0115239
0.0111975
0.0108865
0.0105911
0.0103114
0.0100471
0.00979812
0.00956391
0.00934401
0.00913787
0.0089449
0.00876448
0.0184543
0.0184638
0.0184783
0.0184908
0.0184956
0.0184858
0.0184563
0.0184015
0.0183177
0.0182011
0.0180501
0.0178631
0.0176406
0.0173837
0.0170944
0.0167758
0.0164315
0.0160656
0.0156823
0.0152861
0.0148814
0.0144723
0.0140627
0.0136559
0.0132551
0.0128628
0.0124813
0.0121121
0.0117567
0.011416
0.0110907
0.0107811
0.0104874
0.0102095
0.00994714
0.00970007
0.00946781
0.00924982
0.00904554
0.00885435
0.0185914
0.0186046
0.0186259
0.0186477
0.018664
0.0186676
0.0186528
0.0186139
0.0185465
0.0184465
0.0183118
0.0181404
0.0179324
0.0176884
0.0174102
0.0171005
0.0167627
0.0164008
0.0160192
0.0156222
0.0152144
0.0148
0.0143832
0.0139675
0.0135564
0.0131526
0.0127586
0.0123762
0.0120071
0.0116524
0.0113129
0.0109892
0.0106815
0.0103898
0.0101141
0.00985402
0.0096092
0.00937916
0.00916333
0.00896114
0.018723
0.0187399
0.0187679
0.0187991
0.0188269
0.0188438
0.0188439
0.018821
0.0187704
0.0186876
0.0185699
0.0184151
0.0182227
0.0179928
0.017727
0.0174277
0.017098
0.0167418
0.0163634
0.0159671
0.0155577
0.0151394
0.0147166
0.0142933
0.0138728
0.0134583
0.0130525
0.0126575
0.0122752
0.0119068
0.0115535
0.0112158
0.0108942
0.0105888
0.0102997
0.0100265
0.00976902
0.00952676
0.00929921
0.0090858
0.0188493
0.0188698
0.0189045
0.0189448
0.0189841
0.0190143
0.0190294
0.0190227
0.0189893
0.0189241
0.0188242
0.0186867
0.0185109
0.0182963
0.0180443
0.0177567
0.0174367
0.0170877
0.0167141
0.0163201
0.0159105
0.0154899
0.0150625
0.0146326
0.0142039
0.0137797
0.013363
0.0129561
0.0125612
0.0121796
0.0118127
0.0114614
0.011126
0.0108071
0.0105045
0.0102183
0.00994803
0.00969346
0.00945406
0.00922928
0.0189704
0.0189945
0.0190357
0.0190851
0.0191357
0.0191793
0.0192094
0.019219
0.0192029
0.0191558
0.0190741
0.0189548
0.0187964
0.0185982
0.0183611
0.0180868
0.0177778
0.0174377
0.0170704
0.0166804
0.0162723
0.0158506
0.0154201
0.014985
0.0145493
0.0141165
0.0136898
0.0132718
0.0128649
0.0124708
0.0120908
0.0117261
0.0113774
0.011045
0.0107291
0.0104298
0.0101469
0.00987995
0.00962863
0.00939239
0.0190865
0.019114
0.0191616
0.01922
0.0192818
0.0193386
0.0193836
0.0194097
0.0194111
0.0193824
0.0193194
0.0192188
0.0190787
0.0188979
0.018677
0.0184171
0.0181207
0.0177909
0.0174316
0.0170471
0.016642
0.016221
0.0157888
0.0153499
0.0149084
0.0144681
0.0140325
0.0136044
0.0131863
0.0127802
0.0123878
0.0120102
0.0116484
0.0113028
0.0109739
0.0106617
0.0103661
0.0100869
0.0098236
0.00957586
0.0191976
0.0192285
0.0192824
0.0193496
0.0194225
0.0194923
0.0195522
0.0195947
0.0196138
0.0196036
0.0195598
0.0194784
0.0193573
0.0191949
0.0189912
0.018747
0.0184645
0.0181465
0.0177967
0.0174193
0.0170189
0.0166001
0.0161677
0.0157264
0.0152805
0.0148341
0.0143906
0.0139534
0.013525
0.0131078
0.0127035
0.0123136
0.0119392
0.0115808
0.0112391
0.0109142
0.0106061
0.0103147
0.0100395
0.00978028
0.019304
0.0193382
0.0193983
0.0194742
0.0195579
0.0196406
0.0197152
0.019774
0.0198108
0.0198193
0.0197949
0.0197333
0.0196318
0.0194885
0.019303
0.0190757
0.0188084
0.0185037
0.0181649
0.0177962
0.017402
0.0169869
0.016556
0.0161139
0.015665
0.0152137
0.0147636
0.0143183
0.0138807
0.0134532
0.0130378
0.0126362
0.0122497
0.011879
0.0115249
0.0111876
0.0108672
0.0105637
0.0102768
0.0100062
0.0194058
0.0194432
0.0195094
0.0195936
0.0196881
0.0197835
0.0198726
0.0199476
0.020002
0.0200293
0.0200245
0.019983
0.0199017
0.0197783
0.0196119
0.0194026
0.0191517
0.0188615
0.0185353
0.0181767
0.0177903
0.0173807
0.0169528
0.0165113
0.0160609
0.0156061
0.0151508
0.0146986
0.0142527
0.0138159
0.0133903
0.0129778
0.0125798
0.0121973
0.0118312
0.0114819
0.0111496
0.0108343
0.0105358
0.0102538
0.0195031
0.0195437
0.0196157
0.0197083
0.0198131
0.019921
0.0200245
0.0201155
0.0201874
0.0202335
0.0202485
0.0202274
0.0201668
0.0200638
0.0199173
0.0197269
0.0194936
0.0192193
0.0189069
0.0185601
0.0181831
0.0177804
0.017357
0.0169178
0.0164674
0.0160105
0.0155513
0.0150935
0.0146405
0.0141954
0.0137605
0.0133378
0.0129291
0.0125355
0.012158
0.0117971
0.0114532
0.0111264
0.0108166
0.0105236
0.0195962
0.0196399
0.0197176
0.0198181
0.0199332
0.0200533
0.0201709
0.0202777
0.0203671
0.0204319
0.0204668
0.0204662
0.0204265
0.0203446
0.0202186
0.020048
0.0198333
0.0195761
0.019279
0.0189453
0.0185791
0.018185
0.0177678
0.0173323
0.0168835
0.016426
0.0159642
0.0155021
0.0150433
0.014591
0.0141478
0.0137159
0.0132973
0.0128933
0.0125049
0.012133
0.0117779
0.01144
0.0111192
0.0108154
0.0196852
0.0197318
0.0198151
0.0199234
0.0200485
0.0201805
0.0203119
0.0204343
0.0205409
0.0206244
0.0206791
0.0206992
0.0206808
0.0206202
0.0205155
0.0203655
0.0201703
0.0199313
0.0196506
0.0193314
0.0189776
0.0185936
0.018184
0.0177539
0.0173082
0.0168516
0.0163887
0.0159236
0.0154603
0.0150019
0.0145515
0.0141114
0.0136837
0.01327
0.0128715
0.0124892
0.0121236
0.011775
0.0114436
0.0111293
0.0197702
0.0198197
0.0199084
0.0200243
0.020159
0.0203027
0.0204476
0.0205854
0.020709
0.0208109
0.0208853
0.0209262
0.0209292
0.0208904
0.0208074
0.0206786
0.0205039
0.020284
0.020021
0.0197176
0.0193775
0.019005
0.0186047
0.0181815
0.0177404
0.0172862
0.0168237
0.0163571
0.0158904
0.0154273
0.0149708
0.0145235
0.0140877
0.0136652
0.0132574
0.0128653
0.0124897
0.012131
0.0117895
0.0114651
0.0198514
0.0199037
0.0199976
0.0201209
0.020265
0.02042
0.0205782
0.020731
0.0208713
0.0209915
0.0210856
0.0211472
0.0211717
0.0211549
0.021094
0.020987
0.0208334
0.0206337
0.0203893
0.020103
0.019778
0.0194184
0.0190288
0.018614
0.0181791
0.0177288
0.0172681
0.0168014
0.0163328
0.0158662
0.0154048
0.0149514
0.0145086
0.0140782
0.0136618
0.0132607
0.0128758
0.0125076
0.0121564
0.0118225
0.019929
0.019984
0.0200829
0.0202133
0.0203666
0.0205326
0.0207037
0.0208712
0.021028
0.0211662
0.0212797
0.0213619
0.021408
0.0214134
0.0213749
0.0212902
0.0211585
0.0209796
0.0207549
0.0204867
0.020178
0.0198327
0.0194553
0.0190504
0.0186231
0.0181783
0.0177208
0.0172554
0.0167863
0.0163175
0.0158525
0.0153942
0.0149453
0.014508
0.014084
0.0136747
0.0132812
0.0129041
0.0125439
0.0122009
0.0200031
0.0200607
0.0201644
0.0203018
0.0204638
0.0206406
0.0208243
0.0210062
0.021179
0.021335
0.0214677
0.0215704
0.0216381
0.0216657
0.0216499
0.0215879
0.0214784
0.0213212
0.0211171
0.020868
0.0205768
0.0202471
0.0198832
0.0194896
0.0190714
0.0186335
0.0181808
0.0177181
0.0172499
0.0167803
0.0163128
0.0158508
0.015397
0.0149538
0.0145231
0.0141065
0.0137052
0.0133199
0.0129514
0.0125998
0.0200739
0.020134
0.0202424
0.0203864
0.020557
0.0207442
0.0209401
0.021136
0.0213246
0.021498
0.0216496
0.0217726
0.0218617
0.0219116
0.0219186
0.0218796
0.0217929
0.021658
0.0214752
0.0212462
0.0209735
0.0206606
0.0203114
0.0199305
0.0195228
0.0190933
0.0186468
0.0181883
0.0177224
0.0172532
0.0167847
0.0163201
0.0158626
0.0154146
0.0149782
0.0145552
0.0141469
0.0137542
0.013378
0.0130185
0.0201414
0.0202039
0.0203168
0.0204673
0.0206462
0.0208434
0.0210513
0.0212608
0.0214648
0.0216552
0.0218255
0.0219686
0.0220789
0.022151
0.0221808
0.022165
0.0221016
0.0219894
0.0218286
0.0216205
0.0213674
0.0210723
0.0207391
0.0203722
0.0199764
0.0195566
0.0191178
0.0186649
0.0182026
0.0177352
0.0172669
0.0168011
0.016341
0.0158892
0.0154482
0.0150198
0.0146053
0.0142061
0.0138229
0.0134562
0.0202059
0.0202707
0.020388
0.0205446
0.0207316
0.0209386
0.0211579
0.0213807
0.0215997
0.0218068
0.0219954
0.0221582
0.0222896
0.0223838
0.0224365
0.022444
0.022404
0.022315
0.0221768
0.0219904
0.0217576
0.0214814
0.0211653
0.0208136
0.020431
0.0200222
0.0195925
0.0191465
0.0186893
0.0182251
0.0177583
0.0172924
0.0168309
0.0163766
0.015932
0.0154991
0.0150795
0.0146745
0.0142851
0.0139119
0.0202675
0.0203345
0.020456
0.0206186
0.0208132
0.0210297
0.0212602
0.0214958
0.0217294
0.0219529
0.0221594
0.0223416
0.0224938
0.0226099
0.0226854
0.0227163
0.0226999
0.0226344
0.0225194
0.0223552
0.0221436
0.0218872
0.0215893
0.0212539
0.0208856
0.0204893
0.0200698
0.0196322
0.0191813
0.0187217
0.0182576
0.017793
0.0173313
0.0168755
0.0164284
0.015992
0.0155682
0.0151583
0.0147635
0.0143846
0.0203263
0.0203954
0.0205209
0.0206893
0.0208914
0.0211169
0.0213582
0.0216064
0.0218542
0.0220935
0.0223175
0.0225189
0.0226915
0.0228293
0.0229275
0.0229817
0.0229891
0.0229473
0.0228557
0.0227144
0.0225247
0.0222889
0.02201
0.0216921
0.0213393
0.0209565
0.0205487
0.0201207
0.0196774
0.0192236
0.0187636
0.0183015
0.0178408
0.0173848
0.0169362
0.0164973
0.0160702
0.0156564
0.0152571
0.0148732
0.0203824
0.0204536
0.020583
0.0207569
0.0209661
0.0212004
0.0214521
0.0217124
0.021974
0.0222288
0.02247
0.02269
0.0228828
0.023042
0.0231626
0.0232401
0.0232713
0.0232535
0.0231856
0.0230676
0.0229003
0.0226858
0.0224269
0.0221273
0.0217911
0.0214231
0.021028
0.0206108
0.0201765
0.0197298
0.0192751
0.0188167
0.0183582
0.017903
0.017454
0.0170138
0.0165845
0.0161676
0.0157646
0.0153766
0.0204359
0.0205091
0.0206422
0.0208214
0.0210376
0.0212804
0.0215421
0.0218141
0.0220891
0.022359
0.0226168
0.0228551
0.0230677
0.023248
0.0233909
0.0234915
0.0235463