/*--------------------------------*- C++ -*----------------------------------*\
  =========                 |
  \\      /  F ield         | OpenFOAM: The Open Source CFD Toolbox
   \\    /   O peration     | Website:  https://openfoam.org
    \\  /    A nd           | Version:  6
     \\/     M anipulation  |
\*---------------------------------------------------------------------------*/
FoamFile
{
    version     2.0;
    format      ascii;
    class       surfaceScalarField;
    location    "200";
    object      phi;
}
// * * * * * * * * * * * * * * * * * * * * * * * * * * * * * * * * * * * * * //

dimensions      [0 3 -1 0 0 0 0];

internalField   nonuniform List<scalar> 
156240
(
2.26739
-2.18003e-05
2.26745
-6.3517e-05
2.26755
-9.26519e-05
2.26766
-0.0001126
2.26779
-0.000127108
2.26792
-0.000137616
2.26807
-0.000144414
2.26822
-0.000147767
2.26836
-0.000148226
2.26851
-0.00014649
2.26865
-0.000143209
2.26879
-0.000138889
2.26893
-0.000133886
2.26906
-0.00012844
2.26918
-0.000122713
2.2693
-0.000116823
2.26941
-0.000110863
2.26951
-0.000104909
2.26961
-9.90229e-05
2.2697
-9.3258e-05
2.26979
-8.76558e-05
2.26987
-8.22483e-05
2.26995
-7.70586e-05
2.27002
-7.21024e-05
2.27009
-6.73888e-05
2.27015
-6.29215e-05
2.27021
-5.87002e-05
2.27027
-5.47214e-05
2.27032
-5.0979e-05
2.27036
-4.74654e-05
2.27041
-4.41715e-05
2.27045
-4.10879e-05
2.27049
-3.82042e-05
2.27052
-3.55103e-05
2.27056
-3.29959e-05
2.27059
-3.06506e-05
2.27062
-2.84647e-05
2.27064
-2.64285e-05
2.27067
-2.45327e-05
-2.27685e-05
2.27069
2.18302
-4.31993e-05
2.18308
-0.000125804
2.18317
-0.000183721
2.18328
-0.000223641
2.18341
-0.000252817
2.18355
-0.000274042
2.18369
-0.000287872
2.18384
-0.000294841
2.18399
-0.00029604
2.18413
-0.000292848
2.18427
-0.000286547
2.18441
-0.000278141
2.18455
-0.000268334
2.18468
-0.000257605
2.1848
-0.00024628
2.18492
-0.0002346
2.18503
-0.000222754
2.18514
-0.000210897
2.18524
-0.00019916
2.18533
-0.000187648
2.18542
-0.000176448
2.1855
-0.000165627
2.18558
-0.000155233
2.18565
-0.000145298
2.18572
-0.000135843
2.18579
-0.000126875
2.18585
-0.000118397
2.1859
-0.0001104
2.18595
-0.000102875
2.186
-9.58063e-05
2.18605
-8.91767e-05
2.18609
-8.29675e-05
2.18613
-7.71588e-05
2.18617
-7.17302e-05
2.1862
-6.66615e-05
2.18623
-6.19325e-05
2.18626
-5.75234e-05
2.18629
-5.34152e-05
2.18631
-4.95893e-05
-4.60282e-05
2.18633
2.10179
-6.41466e-05
2.10185
-0.000186499
2.10194
-0.000272589
2.10205
-0.000332186
2.10217
-0.000375796
2.1023
-0.000407503
2.10244
-0.000428178
2.10259
-0.000438659
2.10273
-0.000440578
2.10288
-0.000435973
2.10302
-0.000426732
2.10315
-0.000414336
2.10328
-0.000399827
2.10341
-0.000383918
2.10353
-0.000367101
2.10365
-0.00034974
2.10375
-0.00033212
2.10386
-0.000314475
2.10396
-0.000297001
2.10405
-0.00027986
2.10414
-0.000263179
2.10422
-0.00024706
2.10429
-0.000231574
2.10436
-0.00021677
2.10443
-0.000202679
2.10449
-0.000189313
2.10455
-0.000176674
2.10461
-0.000164752
2.10466
-0.000153531
2.1047
-0.000142989
2.10475
-0.000133102
2.10479
-0.00012384
2.10483
-0.000115175
2.10486
-0.000107076
2.1049
-9.95133e-05
2.10493
-9.24569e-05
2.10495
-8.58775e-05
2.10498
-7.97466e-05
2.105
-7.40368e-05
-6.87218e-05
2.10503
2.02358
-8.48863e-05
2.02364
-0.000246098
2.02373
-0.000359988
2.02383
-0.000439175
2.02396
-0.000497107
2.02409
-0.000539118
2.02423
-0.000566462
2.02437
-0.000580345
2.02451
-0.00058295
2.02465
-0.000576952
2.02479
-0.000564818
2.02492
-0.000548485
2.02505
-0.000529327
2.02518
-0.000508289
2.0253
-0.00048603
2.02541
-0.000463039
2.02552
-0.000439699
2.02562
-0.000416326
2.02571
-0.000393181
2.02581
-0.000370479
2.02589
-0.00034839
2.02597
-0.000327047
2.02605
-0.000306544
2.02612
-0.000286946
2.02618
-0.000268292
2.02624
-0.000250599
2.0263
-0.000233868
2.02635
-0.000218087
2.0264
-0.000203233
2.02645
-0.00018928
2.02649
-0.000176191
2.02653
-0.000163931
2.02657
-0.000152461
2.0266
-0.00014174
2.02664
-0.000131729
2.02667
-0.000122388
2.02669
-0.000113679
2.02672
-0.000105563
2.02674
-9.80043e-05
-9.09685e-05
2.02677
1.94828
-0.000105444
1.94834
-0.00030469
1.94843
-0.000446129
1.94853
-0.00054495
1.94865
-0.000617206
1.94878
-0.000669413
1.94892
-0.000703299
1.94906
-0.000720506
1.9492
-0.000723785
1.94934
-0.000716426
1.94948
-0.00070145
1.94961
-0.000681229
1.94974
-0.000657462
1.94986
-0.000631324
1.94998
-0.000603648
1.95009
-0.000575049
1.9502
-0.000546016
1.9503
-0.000516946
1.95039
-0.000488166
1.95048
-0.000459944
1.95057
-0.000432492
1.95065
-0.000405972
1.95072
-0.000380502
1.95079
-0.00035616
1.95085
-0.000332993
1.95091
-0.000311023
1.95097
-0.000290249
1.95102
-0.000270655
1.95107
-0.000252215
1.95112
-0.000234893
1.95116
-0.000218645
1.9512
-0.000203427
1.95124
-0.000189189
1.95127
-0.000175882
1.9513
-0.000163457
1.95133
-0.000151864
1.95136
-0.000141054
1.95138
-0.000130982
1.95141
-0.000121601
-0.00011287
1.95143
1.87579
-0.000125984
1.87584
-0.000362586
1.87593
-0.000531478
1.87603
-0.000650125
1.87615
-0.000736802
1.87628
-0.000799152
1.87642
-0.000839475
1.87656
-0.000859936
1.8767
-0.000863877
1.87684
-0.000855184
1.87697
-0.000837402
1.87711
-0.000813323
1.87723
-0.000784957
1.87736
-0.000753718
1.87747
-0.000720611
1.87758
-0.000686392
1.87769
-0.000651654
1.87779
-0.000616879
1.87788
-0.000582463
1.87797
-0.000548727
1.87806
-0.000515924
1.87813
-0.000484245
1.87821
-0.000453827
1.87828
-0.000424765
1.87834
-0.000397111
1.8784
-0.000370889
1.87846
-0.000346098
1.87851
-0.00032272
1.87856
-0.00030072
1.8786
-0.000280054
1.87864
-0.000260673
1.87868
-0.000242521
1.87872
-0.000225539
1.87875
-0.000209669
1.87879
-0.000194851
1.87881
-0.000181025
1.87884
-0.000168135
1.87887
-0.000156125
1.87889
-0.000144941
-0.00013453
1.87891
1.80599
-0.000146522
1.80604
-0.000419839
1.80613
-0.000616176
1.80623
-0.000754942
1.80635
-0.000856217
1.80648
-0.000928706
1.80662
-0.000975395
1.80676
-0.000999067
1.8069
-0.00100368
1.80704
-0.000993694
1.80717
-0.000973152
1.8073
-0.000945241
1.80743
-0.000912282
1.80755
-0.000875926
1.80767
-0.000837361
1.80778
-0.000797487
1.80789
-0.000757011
1.80799
-0.000716503
1.80808
-0.000676429
1.80817
-0.000637164
1.80825
-0.000599001
1.80833
-0.000562158
1.8084
-0.000526795
1.80847
-0.000493017
1.80854
-0.000460883
1.80859
-0.00043042
1.80865
-0.000401625
1.8087
-0.000374473
1.80875
-0.000348926
1.8088
-0.000324931
1.80884
-0.000302429
1.80888
-0.000281356
1.80891
-0.000261644
1.80895
-0.000243223
1.80898
-0.000226024
1.80901
-0.000209979
1.80903
-0.000195021
1.80906
-0.000181084
1.80908
-0.000168106
-0.000156027
1.8091
1.73879
-0.000167171
1.73884
-0.000476636
1.73893
-0.000700504
1.73903
-0.000859784
1.73915
-0.00097591
1.73928
-0.00105858
1.73942
-0.00111159
1.73956
-0.00113844
1.7397
-0.00114374
1.73984
-0.00113251
1.73997
-0.00110925
1.7401
-0.00107753
1.74023
-0.00103997
1.74036
-0.000998463
1.74047
-0.00095439
1.74058
-0.000908802
1.74069
-0.000862528
1.74079
-0.000816232
1.74088
-0.000770453
1.74097
-0.000725619
1.74105
-0.000682061
1.74113
-0.00064003
1.7412
-0.000599701
1.74127
-0.000561192
1.74134
-0.000524567
1.7414
-0.000489854
1.74145
-0.000457048
1.7415
-0.00042612
1.74155
-0.000397023
1.7416
-0.000369698
1.74164
-0.000344077
1.74168
-0.000320084
1.74171
-0.000297643
1.74175
-0.000276674
1.74178
-0.000257098
1.74181
-0.000238837
1.74183
-0.000221813
1.74186
-0.000205954
1.74188
-0.000191186
-0.000177442
1.7419
1.67409
-0.000187924
1.67414
-0.000532974
1.67423
-0.000784517
1.67433
-0.000964778
1.67445
-0.00109607
1.67458
-0.00118899
1.67472
-0.0012483
1.67486
-0.00127834
1.675
-0.00128437
1.67514
-0.00127197
1.67528
-0.00124605
1.67541
-0.00121055
1.67554
-0.00116838
1.67566
-0.00112168
1.67578
-0.00107204
1.67589
-0.00102066
1.676
-0.00096852
1.6761
-0.000916367
1.67619
-0.000864818
1.67628
-0.000814358
1.67636
-0.000765359
1.67644
-0.000718097
1.67651
-0.000672767
1.67658
-0.000629497
1.67665
-0.000588356
1.6767
-0.000549372
1.67676
-0.000512537
1.67681
-0.000477817
1.67686
-0.000445158
1.6769
-0.000414492
1.67695
-0.000385742
1.67699
-0.000358822
1.67702
-0.000333646
1.67705
-0.000310124
1.67709
-0.000288166
1.67711
-0.000267685
1.67714
-0.000248593
1.67717
-0.000230809
1.67719
-0.00021425
-0.00019884
1.67721
1.61179
-0.000208853
1.61185
-0.00058894
1.61193
-0.00086835
1.61204
-0.00107013
1.61216
-0.00121695
1.61229
-0.00132025
1.61243
-0.00138587
1.61257
-0.0014191
1.61271
-0.00142594
1.61285
-0.00141244
1.61299
-0.00138394
1.61312
-0.00134468
1.61325
-0.00129789
1.61338
-0.00124596
1.6135
-0.00119067
1.61361
-0.00113343
1.61371
-0.00107533
1.61382
-0.00101723
1.61391
-0.000959832
1.614
-0.000903672
1.61408
-0.000849165
1.61416
-0.000796615
1.61424
-0.000746233
1.6143
-0.000698156
1.61437
-0.000652459
1.61443
-0.000609168
1.61448
-0.000568273
1.61454
-0.000529734
1.61458
-0.000493488
1.61463
-0.000459459
1.61467
-0.000427559
1.61471
-0.000397695
1.61475
-0.000369768
1.61478
-0.000343679
1.61481
-0.000319327
1.61484
-0.000296615
1.61487
-0.000275446
1.61489
-0.000255728
1.61491
-0.00023737
-0.000220288
1.61494
1.55182
-0.000229929
1.55187
-0.000644473
1.55196
-0.000951965
1.55206
-0.00117585
1.55218
-0.00133861
1.55232
-0.00145243
1.55246
-0.00152441
1.5526
-0.00156089
1.55274
-0.00156861
1.55288
-0.00155413
1.55302
-0.00152314
1.55316
-0.00148018
1.55329
-0.00142878
1.55341
-0.00137156
1.55353
-0.00131057
1.55365
-0.00124737
1.55375
-0.00118321
1.55386
-0.00111907
1.55395
-0.00105573
1.55404
-0.000993784
1.55413
-0.000933692
1.55421
-0.000875783
1.55428
-0.000820286
1.55435
-0.000767346
1.55441
-0.000717042
1.55447
-0.000669399
1.55453
-0.000624402
1.55458
-0.000582005
1.55463
-0.000542138
1.55468
-0.000504715
1.55472
-0.000469639
1.55476
-0.000436805
1.55479
-0.000406104
1.55483
-0.000377427
1.55486
-0.000350663
1.55489
-0.000325703
1.55491
-0.000302441
1.55494
-0.000280776
1.55496
-0.000260607
-0.000241841
1.55498
1.49407
-0.000251187
1.49413
-0.000699577
1.49421
-0.00103538
1.49432
-0.00128198
1.49444
-0.00146113
1.49458
-0.00158566
1.49471
-0.00166405
1.49486
-0.00170386
1.495
-0.0017126
1.49514
-0.00169728
1.49529
-0.0016639
1.49542
-0.00161732
1.49556
-0.0015613
1.49568
-0.00149877
1.4958
-0.001432
1.49592
-0.00136275
1.49603
-0.00129243
1.49613
-0.00122214
1.49623
-0.00115276
1.49632
-0.00108493
1.49641
-0.00101917
1.49649
-0.000955816
1.49656
-0.000895129
1.49663
-0.000837257
1.4967
-0.000782283
1.49676
-0.000730231
1.49681
-0.00068108
1.49687
-0.000634777
1.49691
-0.000591245
1.49696
-0.000550388
1.497
-0.000512098
1.49704
-0.000476261
1.49708
-0.000442756
1.49711
-0.000411463
1.49714
-0.00038226
1.49717
-0.000355029
1.4972
-0.000329654
1.49723
-0.000306022
1.49725
-0.000284025
-0.000263559
1.49727
1.43848
-0.000272575
1.43853
-0.000754134
1.43862
-0.00111845
1.43872
-0.00138843
1.43885
-0.00158444
1.43898
-0.00171989
1.43912
-0.00180479
1.43927
-0.00184804
1.43941
-0.00185796
1.43956
-0.00184197
1.4397
-0.00180637
1.43984
-0.00175624
1.43997
-0.00169565
1.4401
-0.00162778
1.44022
-0.00155516
1.44034
-0.00147976
1.44045
-0.00140318
1.44056
-0.00132665
1.44066
-0.00125111
1.44075
-0.0011773
1.44083
-0.00110577
1.44092
-0.00103689
1.44099
-0.000970927
1.44106
-0.000908047
1.44113
-0.000848332
1.44119
-0.000791804
1.44125
-0.000738438
1.4413
-0.000688174
1.44135
-0.000640925
1.4414
-0.000596585
1.44144
-0.000555038
1.44148
-0.000516156
1.44152
-0.00047981
1.44155
-0.000445867
1.44158
-0.000414195
1.44161
-0.000384665
1.44164
-0.000357149
1.44167
-0.000331527
1.44169
-0.000307679
-0.000285494
1.44171
1.38495
-0.000294096
1.38501
-0.000808078
1.38509
-0.00120111
1.3852
-0.0014951
1.38532
-0.00170846
1.38546
-0.00185506
1.3856
-0.00194661
1.38574
-0.00199345
1.38589
-0.00200474
1.38604
-0.0019883
1.38618
-0.00195065
1.38632
-0.0018971
1.38646
-0.00183199
1.38659
-0.00175877
1.38671
-0.00168025
1.38683
-0.00159863
1.38695
-0.00151569
1.38705
-0.00143279
1.38715
-0.001351
1.38725
-0.0012711
1.38733
-0.00119369
1.38742
-0.00111918
1.38749
-0.00104786
1.38756
-0.000979883
1.38763
-0.000915347
1.38769
-0.000854268
1.38775
-0.000796617
1.38781
-0.000742326
1.38786
-0.0006913
1.3879
-0.000643422
1.38795
-0.000598566
1.38799
-0.000556592
1.38803
-0.00051736
1.38806
-0.000480727
1.38809
-0.000446548
1.38812
-0.000414684
1.38815
-0.000384997
1.38818
-0.000357355
1.3882
-0.00033163
-0.000307701
1.38822
1.33342
-0.000315675
1.33347
-0.00086124
1.33356
-0.00128313
1.33366
-0.00160177
1.33379
-0.001833
1.33392
-0.00199101
1.33407
-0.00208936
1.33421
-0.00213997
1.33436
-0.00215288
1.33451
-0.00213624
1.33465
-0.00209676
1.3348
-0.00203996
1.33494
-0.0019704
1.33507
-0.00189186
1.3352
-0.0018074
1.33532
-0.00171949
1.33543
-0.0016301
1.33554
-0.00154073
1.33564
-0.00145257
1.33574
-0.00136648
1.33582
-0.00128309
1.33591
-0.00120286
1.33599
-0.00112607
1.33606
-0.00105291
1.33613
-0.000983463
1.33619
-0.000917752
1.33625
-0.00085574
1.33631
-0.00079735
1.33636
-0.000742479
1.3364
-0.000691002
1.33645
-0.000642777
1.33649
-0.000597658
1.33653
-0.00055549
1.33656
-0.00051612
1.3366
-0.000479391
1.33663
-0.000445154
1.33665
-0.000413259
1.33668
-0.000383564
1.33671
-0.000355932
-0.00033023
1.33673
1.2838
-0.000337288
1.28386
-0.000913496
1.28394
-0.00136432
1.28404
-0.00170825
1.28417
-0.00195784
1.2843
-0.00212752
1.28445
-0.00223286
1.2846
-0.00228749
1.28475
-0.0023023
1.28489
-0.00228577
1.28504
-0.00224473
1.28519
-0.00218485
1.28533
-0.00211097
1.28546
-0.00202714
1.28559
-0.00193674
1.28572
-0.00184248
1.28583
-0.00174656
1.28594
-0.00165063
1.28605
-0.001556
1.28614
-0.00146361
1.28623
-0.00137413
1.28632
-0.00128807
1.2864
-0.00120572
1.28647
-0.00112727
1.28654
-0.00105283
1.28661
-0.000982395
1.28667
-0.000915938
1.28672
-0.00085337
1.28678
-0.000794581
1.28682
-0.000739432
1.28687
-0.000687775
1.28691
-0.000639449
1.28695
-0.00059429
1.28699
-0.000552129
1.28702
-0.000512803
1.28705
-0.000476147
1.28708
-0.000442003
1.28711
-0.000410217
1.28713
-0.000380642
-0.000353136
1.28715
1.23603
-0.000358841
1.23608
-0.000964638
1.23616
-0.00144443
1.23627
-0.0018142
1.23639
-0.00208265
1.23653
-0.0022643
1.23668
-0.00237686
1.23682
-0.00243575
1.23697
-0.00245281
1.23713
-0.00243673
1.23728
-0.00239445
1.23742
-0.00233175
1.23756
-0.0022537
1.2377
-0.00216467
1.23783
-0.00206833
1.23796
-0.0019677
1.23808
-0.00186518
1.23819
-0.00176261
1.2383
-0.00166142
1.23839
-0.00156262
1.23849
-0.00146696
1.23857
-0.00137495
1.23866
-0.00128694
1.23873
-0.00120311
1.2388
-0.00112357
1.23887
-0.00104832
1.23893
-0.000977328
1.23899
-0.000910498
1.23904
-0.000847709
1.23909
-0.000788815
1.23913
-0.000733654
1.23918
-0.000682055
1.23922
-0.000633841
1.23925
-0.000588834
1.23929
-0.000546856
1.23932
-0.000507732
1.23935
-0.000471292
1.23938
-0.000437373
1.2394
-0.000405815
-0.000376469
1.23942
1.19004
-0.000380286
1.19009
-0.0010145
1.19017
-0.00152317
1.19027
-0.00191932
1.1904
-0.00220711
1.19053
-0.00240102
1.19068
-0.00252104
1.19083
-0.00258452
1.19098
-0.00260419
1.19113
-0.00258898
1.19128
-0.00254581
1.19143
-0.00248058
1.19158
-0.00239857
1.19172
-0.00230444
1.19185
-0.00220222
1.19198
-0.00209521
1.1921
-0.00198605
1.19221
-0.00187678
1.19232
-0.00176894
1.19242
-0.00166364
1.19252
-0.0015617
1.1926
-0.00146365
1.19269
-0.00136987
1.19277
-0.00128055
1.19284
-0.00119581
1.1929
-0.00111566
1.19297
-0.00104003
1.19303
-0.000968852
1.19308
-0.000901978
1.19313
-0.000839256
1.19318
-0.000780514
1.19322
-0.00072557
1.19326
-0.000674234
1.1933
-0.000626316
1.19333
-0.000581627
1.19337
-0.00053998
1.1934
-0.000501195
1.19342
-0.000465094
1.19345
-0.000431511
-0.000400283
1.19347
1.14576
-0.000401517
1.14581
-0.00106285
1.14588
-0.00160024
1.14599
-0.00202323
1.14611
-0.0023308
1.14625
-0.00253726
1.14639
-0.00266501
1.14654
-0.00273343
1.14669
-0.00275616
1.14685
-0.00274226
1.147
-0.00269863
1.14715
-0.00263121
1.1473
-0.00254548
1.14744
-0.00244643
1.14757
-0.00233842
1.1477
-0.00222505
1.14783
-0.00210925
1.14794
-0.00199322
1.14805
-0.00187866
1.14816
-0.00176679
1.14825
-0.00165846
1.14834
-0.00155428
1.14843
-0.00145463
1.14851
-0.00135973
1.14858
-0.00126969
1.14865
-0.00118452
1.14871
-0.00110417
1.14877
-0.00102854
1.14883
-0.00095749
1.14888
-0.000890854
1.14893
-0.00082845
1.14897
-0.000770082
1.14902
-0.000715551
1.14905
-0.000664655
1.14909
-0.000617191
1.14912
-0.000572962
1.14915
-0.000531774
1.14918
-0.000493442
1.14921
-0.000457785
-0.000424632
1.14923
1.10312
-0.000422468
1.10317
-0.00110949
1.10325
-0.00167532
1.10335
-0.00212554
1.10347
-0.00245329
1.10361
-0.0026726
1.10375
-0.00280837
1.1039
-0.00288211
1.10405
-0.00290837
1.1042
-0.0028963
1.10436
-0.00285269
1.10451
-0.00278346
1.10466
-0.00269433
1.1048
-0.00259056
1.10494
-0.00247688
1.10507
-0.00235723
1.1052
-0.00223479
1.10532
-0.00211199
1.10543
-0.00199067
1.10554
-0.00187215
1.10564
-0.00175737
1.10573
-0.00164696
1.10581
-0.00154134
1.1059
-0.00144075
1.10597
-0.00134531
1.10604
-0.00125503
1.10611
-0.00116985
1.10617
-0.00108968
1.10623
-0.00101435
1.10628
-0.000943713
1.10633
-0.000877558
1.10637
-0.000815685
1.10642
-0.000757881
1.10645
-0.000703932
1.10649
-0.000653625
1.10652
-0.000606749
1.10656
-0.000563099
1.10659
-0.000522479
1.10661
-0.000484696
-0.000449569
1.10664
1.06208
-0.000443027
1.06212
-0.00115419
1.06219
-0.00174807
1.06229
-0.0022258
1.06242
-0.00257409
1.06255
-0.00280652
1.06269
-0.00295063
1.06284
-0.00303011
1.06299
-0.00306043
1.06315
-0.00305074
1.0633
-0.00300768
1.06345
-0.00293711
1.06361
-0.00284492
1.06375
-0.00273669
1.06389
-0.00261753
1.06403
-0.00249171
1.06415
-0.00236269
1.06428
-0.00223313
1.06439
-0.00210502
1.0645
-0.00197981
1.0646
-0.0018585
1.06469
-0.00174179
1.06478
-0.00163011
1.06487
-0.00152374
1.06494
-0.00142279
1.06502
-0.00132729
1.06508
-0.00123718
1.06515
-0.00115236
1.0652
-0.00107267
1.06526
-0.00099793
1.06531
-0.000927934
1.06535
-0.000862468
1.0654
-0.000801308
1.06544
-0.000744229
1.06548
-0.000691004
1.06551
-0.000641413
1.06554
-0.000595237
1.06557
-0.000552268
1.0656
-0.000512304
-0.000475151
1.06563
1.02256
-0.000463117
1.0226
-0.00119675
1.02267
-0.00181816
1.02277
-0.00232359
1.02289
-0.00269271
1.02302
-0.00293852
1.02316
-0.00309129
1.02331
-0.00317697
1.02346
-0.0032119
1.02361
-0.00320521
1.02377
-0.00316328
1.02392
-0.00309188
1.02407
-0.00299704
1.02422
-0.00288468
1.02436
-0.00276026
1.0245
-0.00262842
1.02463
-0.00249291
1.02475
-0.00235663
1.02487
-0.00222175
1.02498
-0.00208982
1.02508
-0.00196193
1.02518
-0.00183885
1.02527
-0.00172103
1.02536
-0.00160878
1.02544
-0.00150224
1.02551
-0.00140142
1.02558
-0.00130628
1.02564
-0.00121671
1.0257
-0.00113255
1.02576
-0.00105361
1.02581
-0.000979673
1.02586
-0.000910522
1.0259
-0.00084592
1.02595
-0.000785627
1.02598
-0.000729408
1.02602
-0.000677027
1.02605
-0.000628256
1.02608
-0.000582875
1.02611
-0.000540669
-0.000501435
1.02614
0.984507
-0.000482629
0.984547
-0.00123694
0.984614
-0.00188525
0.984709
-0.00241846
0.984825
-0.00280863
0.984954
-0.00306806
0.985093
-0.00322981
0.985238
-0.00332215
0.985388
-0.00336231
0.985543
-0.00335927
0.985698
-0.0033191
0.985854
-0.00324743
0.986007
-0.00315043
0.986157
-0.00303431
0.986302
-0.00290491
0.98644
-0.00276725
0.986573
-0.00262539
0.986699
-0.00248248
0.986818
-0.00234086
0.98693
-0.00220221
0.987036
-0.00206772
0.987135
-0.00193821
0.987229
-0.00181419
0.987316
-0.00169598
0.987397
-0.00158374
0.987473
-0.00147751
0.987544
-0.00137724
0.98761
-0.00128281
0.987672
-0.00119408
0.987729
-0.00111084
0.987782
-0.00103287
0.987832
-0.000959937
0.987878
-0.0008918
0.98792
-0.000828208
0.98796
-0.000768911
0.987996
-0.000713664
0.98803
-0.000662225
0.988062
-0.000614362
0.988091
-0.000569851
-0.000528476
0.988118
0.947873
-0.000501485
0.94791
-0.00127458
0.947974
-0.00194903
0.948066
-0.00250997
0.948178
-0.00292134
0.948305
-0.00319458
0.948441
-0.00336563
0.948584
-0.00346514
0.948732
-0.00351114
0.948886
-0.00351245
0.949041
-0.00347472
0.949197
-0.00340341
0.949352
-0.00330477
0.949503
-0.00318532
0.949649
-0.00305129
0.94979
-0.00290807
0.949924
-0.00276005
0.950053
-0.00261063
0.950174
-0.00246233
0.950289
-0.002317
0.950397
-0.0021759
0.950499
-0.00203993
0.950594
-0.00190965
0.950684
-0.00178541
0.950767
-0.0016674
0.950845
-0.00155565
0.950918
-0.00145015
0.950986
-0.00135077
0.95105
-0.00125736
0.951108
-0.00116971
0.951163
-0.00108761
0.951214
-0.0010108
0.951261
-0.000939035
0.951305
-0.000872053
0.951346
-0.000809593
0.951384
-0.000751397
0.951419
-0.000697214
0.951451
-0.000646797
0.951481
-0.000599912
-0.000556332
0.951509
0.912602
-0.000519581
0.912636
-0.00130947
0.912697
-0.00200917
0.912784
-0.00259768
0.912893
-0.00303031
0.913016
-0.00331753
0.913149
-0.00349819
0.913289
-0.00360535
0.913436
-0.00365785
0.913588
-0.00366423
0.913742
-0.00362968
0.913898
-0.00355939
0.914053
-0.0034597
0.914206
-0.00333742
0.914353
-0.00319917
0.914496
-0.0030507
0.914633
-0.00289675
0.914763
-0.00274098
0.914887
-0.00258613
0.915004
-0.00243417
0.915115
-0.00228649
0.915219
-0.00214405
0.915317
-0.00200747
0.915408
-0.00187714
0.915494
-0.00175327
0.915574
-0.00163593
0.915649
-0.0015251
0.915719
-0.00142067
0.915784
-0.00132248
0.915845
-0.00123033
0.915901
-0.00114398
0.915954
-0.0010632
0.916002
-0.000987706
0.916048
-0.00091724
0.91609
-0.000851527
0.916128
-0.000790298
0.916165
-0.00073329
0.916198
-0.000680244
0.916229
-0.000630914
-0.000585062
0.916258
0.878643
-0.000536847
0.878675
-0.00134146
0.878731
-0.00206541
0.878815
-0.0026812
0.878919
-0.00313506
0.879038
-0.00343635
0.879167
-0.00362691
0.879304
-0.00374223
0.879448
-0.00380189
0.879598
-0.00381409
0.879752
-0.00378347
0.879907
-0.00371493
0.880062
-0.00361484
0.880215
-0.00349028
0.880364
-0.00334825
0.880508
-0.0031949
0.880647
-0.00303532
0.880779
-0.00287343
0.880905
-0.00271217
0.881025
-0.00255368
0.881138
-0.00239947
0.881244
-0.00225057
0.881345
-0.00210768
0.881439
-0.00197122
0.881527
-0.00184143
0.881609
-0.00171842
0.881686
-0.00160217
0.881758
-0.00149259
0.881825
-0.00138952
0.881888
-0.00129276
0.881946
-0.00120207
0.882
-0.00111721
0.88205
-0.00103789
0.882097
-0.000963848
0.88214
-0.00089479
0.88218
-0.00083044
0.882217
-0.000770521
0.882252
-0.000714767
0.882284
-0.000662917
-0.000614723
0.882314
0.845948
-0.000553195
0.845977
-0.0013704
0.846029
-0.00211747
0.846108
-0.00276013
0.846208
-0.00323509
0.846322
-0.00355052
0.846446
-0.00375124
0.846579
-0.00387519
0.84672
-0.00394268
0.846867
-0.00396146
0.847019
-0.00393558
0.847174
-0.00386954
0.847329
-0.00376974
0.847482
-0.00364351
0.847632
-0.00349823
0.847778
-0.00334044
0.847918
-0.00317556
0.848052
-0.00300781
0.84818
-0.00284035
0.848302
-0.00267547
0.848418
-0.00251481
0.848527
-0.0023595
0.848629
-0.00221029
0.848726
-0.00206767
0.848816
-0.00193193
0.848901
-0.00180318
0.84898
-0.00168143
0.849054
-0.00156661
0.849123
-0.00145856
0.849188
-0.00135709
0.849247
-0.00126196
0.849303
-0.00117291
0.849355
-0.00108967
0.849403
-0.00101195
0.849448
-0.000939452
0.849489
-0.000871889
0.849528
-0.000808975
0.849563
-0.00075043
0.849596
-0.000695982
-0.000645372
0.849627
0.814469
-0.000568565
0.814495
-0.00139617
0.814543
-0.00216515
0.814617
-0.00283413
0.814711
-0.00332996
0.81482
-0.00365951
0.81494
-0.00387063
0.815068
-0.00400369
0.815205
-0.00407965
0.81535
-0.00410579
0.815499
-0.00408545
0.815653
-0.00402272
0.815807
-0.00392395
0.81596
-0.00379671
0.816111
-0.00364875
0.816257
-0.003487
0.816399
-0.00331723
0.816535
-0.00314394
0.816665
-0.00297052
0.816789
-0.00279943
0.816907
-0.00263245
0.817018
-0.00247079
0.817123
-0.00231531
0.817222
-0.00216653
0.817315
-0.00202479
0.817402
-0.00189024
0.817483
-0.00176293
0.817559
-0.00164278
0.817631
-0.00152966
0.817697
-0.00142338
0.817759
-0.00132371
0.817816
-0.00123039
0.81787
-0.00114312
0.817919
-0.00106162
0.817965
-0.000985583
0.818008
-0.000914715
0.818048
-0.000848715
0.818085
-0.000787294
0.818119
-0.000730167
-0.000677065
0.818151
0.784162
-0.000582888
0.784184
-0.00141868
0.784227
-0.00220824
0.784296
-0.00290287
0.784385
-0.00341926
0.784489
-0.00376286
0.784603
-0.00398455
0.784726
-0.00412715
0.784859
-0.00421224
0.784999
-0.00424651
0.785146
-0.00423253
0.785298
-0.00417393
0.785451
-0.00407696
0.785603
-0.00394943
0.785754
-0.00379942
0.785901
-0.00363425
0.786044
-0.00346005
0.786182
-0.00328159
0.786314
-0.00310251
0.78644
-0.00292544
0.78656
-0.00275229
0.786673
-0.0025844
0.786781
-0.00242269
0.786882
-0.00226777
0.786977
-0.00212002
0.787067
-0.00197964
0.78715
-0.0018467
0.787229
-0.00172116
0.787302
-0.00160289
0.78737
-0.00149171
0.787434
-0.0013874
0.787493
-0.00128969
0.787548
-0.00119829
0.7876
-0.00111292
0.787647
-0.00103325
0.787692
-0.00095898
0.787733
-0.000889804
0.787771
-0.000825418
0.787806
-0.00076553
-0.000709857
0.787839
0.754982
-0.000596123
0.755001
-0.00143788
0.755039
-0.00224661
0.755103
-0.00296611
0.755186
-0.00350262
0.755283
-0.00386014
0.755391
-0.00409254
0.755509
-0.00424508
0.755637
-0.00433989
0.755773
-0.00438304
0.755917
-0.00437625
0.756066
-0.00432261
0.756217
-0.00422827
0.756369
-0.00410119
0.756519
-0.00394982
0.756667
-0.00378183
0.756811
-0.00360371
0.75695
-0.00342051
0.757083
-0.00323611
0.757211
-0.00305333
0.757333
-0.00287422
0.757449
-0.00270023
0.757558
-0.00253239
0.757662
-0.00237137
0.75776
-0.00221763
0.757851
-0.00207139
0.757937
-0.00193278
0.758018
-0.00180177
0.758093
-0.00167827
0.758164
-0.00156211
0.75823
-0.00145306
0.758291
-0.00135087
0.758348
-0.00125526
0.758401
-0.0011659
0.75845
-0.0010825
0.758496
-0.00100474
0.758538
-0.000932297
0.758578
-0.000864859
0.758614
-0.000802124
-0.000743798
0.758648
0.726888
-0.000608223
0.726904
-0.00145371
0.726937
-0.00228015
0.726995
-0.00302362
0.727072
-0.00357974
0.727163
-0.00395095
0.727264
-0.00419413
0.727376
-0.00435697
0.727498
-0.00446208
0.72763
-0.00451484
0.72777
-0.00451605
0.727916
-0.00446822
0.728065
-0.00437733
0.728215
-0.0042515
0.728365
-0.00409949
0.728512
-0.00392934
0.728656
-0.00374786
0.728796
-0.00356041
0.728931
-0.00337108
0.729061
-0.0031829
0.729185
-0.00299807
0.729303
-0.00281817
0.729414
-0.00264432
0.72952
-0.00247728
0.72962
-0.00231756
0.729714
-0.00216548
0.729803
-0.00202116
0.729886
-0.00188465
0.729963
-0.00175585
0.730036
-0.00163462
0.730103
-0.00152076
0.730167
-0.001414
0.730225
-0.00131406
0.73028
-0.00122063
0.730331
-0.00113341
0.730378
-0.00105205
0.730422
-0.000976248
0.730463
-0.000905667
0.730501
-0.000839999
-0.000778939
0.730536
0.699839
-0.000619165
0.699852
-0.00146618
0.69988
-0.00230878
0.699932
-0.00307524
0.700003
-0.00365036
0.700087
-0.00403496
0.700181
-0.00428895
0.700287
-0.00446237
0.700403
-0.00457831
0.70053
-0.00464137
0.700665
-0.00465138
0.700807
-0.0046102
0.700953
-0.00452361
0.701101
-0.00439985
0.70125
-0.00424797
0.701397
-0.00407634
0.701541
-0.00389212
0.701682
-0.00370094
0.701818
-0.00350714
0.701949
-0.00331393
0.702074
-0.00312367
0.702194
-0.00293807
0.702308
-0.00275836
0.702416
-0.00258541
0.702519
-0.00241978
0.702615
-0.00226186
0.702706
-0.00211184
0.702791
-0.00196978
0.702871
-0.00183563
0.702945
-0.00170927
0.703015
-0.00159051
0.70308
-0.00147909
0.703141
-0.00137474
0.703197
-0.00127715
0.70325
-0.001186
0.703299
-0.00110096
0.703344
-0.0010217
0.703387
-0.00094789
0.703426
-0.000879202
-0.000815323
0.703462
0.673797
-0.000628925
0.673806
-0.0014753
0.67383
-0.00233249
0.673875
-0.00312084
0.673939
-0.00371426
0.674016
-0.00411191
0.674104
-0.00437665
0.674202
-0.00456089
0.674312
-0.00468812
0.674433
-0.00476211
0.674563
-0.00478169
0.674701
-0.00474799
0.674844
-0.00466655
0.67499
-0.0045457
0.675137
-0.00439475
0.675283
-0.00422239
0.675427
-0.00403609
0.675568
-0.00384177
0.675704
-0.00364398
0.675837
-0.00344615
0.675964
-0.00325079
0.676085
-0.00305976
0.676201
-0.00287439
0.676312
-0.00269565
0.676416
-0.0025242
0.676515
-0.00236049
0.676608
-0.00220477
0.676695
-0.00205715
0.676777
-0.00191761
0.676854
-0.00178607
0.676926
-0.00166233
0.676993
-0.00154618
0.677055
-0.00143733
0.677114
-0.00133549
0.677168
-0.00124032
0.677218
-0.00115151
0.677265
-0.0010687
0.677309
-0.000991567
0.67735
-0.000919771
-0.000852989
0.677387
0.648724
-0.000637501
0.64873
-0.00148112
0.648748
-0.00235129
0.648788
-0.00316037
0.648845
-0.0037713
0.648915
-0.00418156
0.648995
-0.00445695
0.649086
-0.00465217
0.649189
-0.00479109
0.649304
-0.00487661
0.649428
-0.00490646
0.649561
-0.00488105
0.6497
-0.00480562
0.649843
-0.00468853
0.649988
-0.00453933
0.650133
-0.00436701
0.650276
-0.00417934
0.650417
-0.00398249
0.650554
-0.00378127
0.650687
-0.00357927
0.650815
-0.00337919
0.650939
-0.00318302
0.651056
-0.00299222
0.651169
-0.00280787
0.651275
-0.00263072
0.651376
-0.00246129
0.651471
-0.00229991
0.651561
-0.00214672
0.651645
-0.00200178
0.651724
-0.001865
0.651798
-0.00173623
0.651867
-0.00161527
0.651931
-0.00150185
0.651991
-0.00139566
0.652047
-0.0012964
0.6521
-0.00120372
0.652148
-0.00111728
0.652193
-0.00103673
0.652235
-0.000961742
-0.000891973
0.652274
0.624583
-0.00064489
0.624586
-0.0014837
0.6246
-0.00236523
0.624633
-0.00319381
0.624683
-0.00382141
0.624746
-0.00424378
0.624818
-0.00452962
0.624902
-0.00473592
0.624998
-0.00488686
0.625106
-0.00498443
0.625224
-0.00502523
0.625352
-0.00500888
0.625487
-0.00494028
0.625626
-0.00482781
0.625768
-0.00468119
0.625911
-0.00450972
0.626053
-0.00432141
0.626193
-0.00412271
0.62633
-0.00391863
0.626464
-0.00371297
0.626593
-0.00350858
0.626718
-0.00330761
0.626838
-0.00311166
0.626952
-0.0029219
0.62706
-0.00273919
0.627163
-0.00256415
0.62726
-0.00239716
0.627352
-0.00223844
0.627438
-0.00208807
0.627519
-0.00194603
0.627595
-0.00181219
0.627666
-0.00168636
0.627733
-0.00156829
0.627795
-0.00145769
0.627853
-0.00135425
0.627906
-0.00125761
0.627957
-0.00116745
0.628003
-0.00108341
0.628047
-0.00100514
-0.000932301
0.628087
0.601341
-0.000651108
0.601341
-0.00148315
0.60135
-0.0023744
0.601377
-0.0032212
0.60142
-0.00386454
0.601475
-0.00429846
0.60154
-0.00459451
0.601616
-0.00481191
0.601704
-0.00497512
0.601805
-0.00508518
0.601917
-0.00513754
0.602039
-0.00513097
0.602169
-0.00507002
0.602304
-0.004963
0.602443
-0.00481982
0.602583
-0.00465001
0.602724
-0.00446183
0.602863
-0.00426198
0.603
-0.00405567
0.603134
-0.00384689
0.603264
-0.00363866
0.60339
-0.00343328