/*--------------------------------*- C++ -*----------------------------------*\
  =========                 |
  \\      /  F ield         | OpenFOAM: The Open Source CFD Toolbox
   \\    /   O peration     | Website:  https://openfoam.org
    \\  /    A nd           | Version:  6
     \\/     M anipulation  |
\*---------------------------------------------------------------------------*/
FoamFile
{
    version     2.0;
    format      ascii;
    class       volScalarField;
    location    "200";
    object      T;
}
// * * * * * * * * * * * * * * * * * * * * * * * * * * * * * * * * * * * * * //

dimensions      [0 0 0 1 0 0 0];

internalField   nonuniform List<scalar> 
78400
(
3.0167e-267
6.14155e-265
1.0961e-263
1.11504e-262
8.0728e-262
4.57136e-261
2.13571e-260
8.5234e-260
2.97825e-259
9.28144e-259
2.61725e-258
6.75618e-258
1.61194e-257
3.58338e-257
7.47345e-257
1.47102e-256
2.74695e-256
4.88883e-256
8.3264e-256
1.36204e-255
2.14699e-255
3.27085e-255
4.82893e-255
6.92569e-255
9.67084e-255
1.31747e-254
1.75431e-254
2.2872e-254
2.92429e-254
3.67189e-254
4.53411e-254
5.51272e-254
6.60705e-254
7.81404e-254
9.12841e-254
1.05429e-253
1.20484e-253
1.36346e-253
1.52903e-253
1.70027e-253
1.47429e-264
3.00209e-262
5.36207e-261
5.45977e-260
3.95693e-259
2.24316e-258
1.0492e-257
4.1923e-257
1.46668e-256
4.57648e-256
1.29215e-255
3.33986e-255
7.97886e-255
1.77603e-254
3.7089e-254
7.30986e-254
1.36679e-253
2.43563e-253
4.15347e-253
6.80272e-253
1.07362e-252
1.63756e-252
2.42041e-252
3.47527e-252
4.85805e-252
6.62514e-252
8.8308e-252
1.15245e-251
1.47484e-251
1.85355e-251
2.29075e-251
2.78744e-251
3.34338e-251
3.95708e-251
4.62592e-251
5.34626e-251
6.11356e-251
6.92255e-251
7.76753e-251
8.64196e-251
6.69292e-262
1.36317e-259
2.43667e-258
2.48343e-257
1.80176e-256
1.02258e-255
4.7888e-255
1.91588e-254
6.71148e-254
2.097e-253
5.92891e-253
1.5346e-252
3.67131e-252
8.18369e-252
1.71146e-251
3.37794e-251
6.32504e-251
1.12873e-250
1.92752e-250
3.16133e-250
4.99605e-250
7.63047e-250
1.1293e-249
1.62352e-249
2.27229e-249
3.10251e-249
4.14015e-249
5.40901e-249
6.92953e-249
8.71774e-249
1.07845e-248
1.31351e-248
1.57688e-248
1.8679e-248
2.18538e-248
2.5276e-248
2.89244e-248
3.27742e-248
3.67983e-248
4.09656e-248
2.81704e-259
5.73874e-257
1.02662e-255
1.04734e-254
7.60704e-254
4.32257e-253
2.02688e-252
8.12001e-252
2.8485e-251
8.91303e-251
2.52377e-250
6.5423e-250
1.56757e-249
3.49975e-249
7.33062e-249
1.44916e-248
2.7178e-248
4.8577e-248
8.30848e-248
1.3648e-247
2.16017e-247
3.30418e-247
4.89733e-247
7.05066e-247
9.88193e-247
1.35107e-246
1.8053e-246
2.36156e-246
3.02908e-246
3.81519e-246
4.72497e-246
5.76095e-246
6.9231e-246
8.20875e-246
9.61277e-246
1.11278e-245
1.27446e-245
1.44522e-245
1.62386e-245
1.80902e-245
1.09934e-256
2.23996e-254
4.01041e-253
4.09553e-252
2.97812e-251
1.69442e-250
7.95618e-250
3.192e-249
1.12146e-248
3.51461e-248
9.96801e-248
2.58831e-247
6.21236e-247
1.38938e-246
2.91533e-246
5.77341e-246
1.08469e-245
1.94219e-245
3.32773e-245
5.4759e-245
8.68214e-245
1.33028e-244
1.97498e-244
2.84801e-244
3.998e-244
5.47456e-244
7.32604e-244
9.59722e-244
1.23271e-243
1.55471e-243
1.92791e-243
2.35351e-243
2.83159e-243
3.36117e-243
3.94025e-243
4.56585e-243
5.23423e-243
5.94091e-243
6.68098e-243
7.44878e-243
3.97778e-254
8.10653e-252
1.45262e-250
1.48504e-249
1.08119e-248
6.1599e-248
2.89665e-247
1.16395e-246
4.09614e-246
1.28594e-245
3.65368e-245
9.50478e-245
2.28563e-244
5.12167e-244
1.07679e-243
2.13669e-243
4.02239e-243
7.2167e-243
1.23898e-242
2.04284e-242
3.24534e-242
4.98215e-242
7.41077e-242
1.07066e-241
1.50572e-241
2.06547e-241
2.76874e-241
3.63312e-241
4.67402e-241
5.90399e-241
7.33205e-241
8.9633e-241
1.07987e-240
1.28348e-240
1.50645e-240
1.74767e-240
2.00572e-240
2.2789e-240
2.56533e-240
2.86281e-240
1.33456e-251
2.7203e-249
4.87887e-248
4.99336e-247
3.6402e-246
2.07697e-245
9.78238e-245
3.93756e-244
1.3882e-243
4.36644e-243
1.24308e-242
3.24045e-242
7.80891e-242
1.75363e-241
3.69504e-241
7.34854e-241
1.38652e-240
2.49325e-240
4.29022e-240
7.08975e-240
1.12883e-239
1.7368e-239
2.58906e-239
3.74851e-239
5.28271e-239
7.2613e-239
9.75297e-239
1.28222e-238
1.65263e-238
2.09123e-238
2.6015e-238
3.18549e-238
3.84377e-238
4.57536e-238
5.37784e-238
6.24739e-238
7.17903e-238
8.16672e-238
9.20373e-238
1.02822e-237
4.15183e-249
8.4645e-247
1.51953e-245
1.55704e-244
1.13669e-243
6.49577e-243
3.06476e-242
1.23593e-241
4.36602e-241
1.37618e-240
3.92653e-240
1.02592e-239
2.47816e-239
5.57876e-239
1.17843e-238
2.34956e-238
4.44452e-238
8.01287e-238
1.38237e-237
2.29033e-237
3.65605e-237
5.63942e-237
8.42779e-237
1.2232e-236
1.72798e-236
2.38075e-236
3.20498e-236
4.22289e-236
5.45441e-236
6.91619e-236
8.62076e-236
1.0576e-235
1.27846e-235
1.52443e-235
1.79475e-235
2.08822e-235
2.40319e-235
2.73768e-235
3.08942e-235
3.45577e-235
1.19773e-246
2.44233e-244
4.38872e-243
4.50283e-242
3.29216e-241
1.88457e-240
8.90839e-240
3.59989e-239
1.27451e-238
4.02674e-238
1.15175e-237
3.01706e-237
7.30738e-237
1.64956e-236
3.49429e-236
6.98706e-236
1.32557e-235
2.39688e-235
4.14733e-235
6.89172e-235
1.10337e-234
1.7069e-234
2.55822e-234
3.72348e-234
5.27465e-234
7.28691e-234
9.83549e-234
1.29924e-233
1.68227e-233
2.13819e-233
2.67127e-233
3.28432e-233
3.97854e-233
4.75349e-233
5.60712e-233
6.53582e-233
7.53463e-233
8.59738e-233
9.71702e-233
1.08852e-232
3.20417e-244
6.53499e-242
1.17552e-240
1.20774e-239
8.84456e-239
5.07244e-238
2.40274e-237
9.73161e-237
3.45387e-236
1.09409e-235
3.13808e-235
8.24421e-235
2.00281e-234
4.53526e-234
9.63806e-234
1.93352e-233
3.68049e-233
6.67751e-233
1.15934e-232
1.93305e-232
3.10531e-232
4.82004e-232
7.24801e-232
1.05839e-231
1.50411e-231
2.08441e-231
2.82199e-231
3.73875e-231
4.85482e-231
6.18753e-231
7.75063e-231
9.55357e-231
1.16011e-230
1.3893e-230
1.64242e-230
1.91848e-230
2.21609e-230
2.53346e-230
2.86853e-230
3.21882e-230
7.94922e-242
1.62158e-239
2.92017e-238
3.00463e-237
2.20427e-236
1.26675e-235
6.01415e-235
2.44202e-234
8.69079e-234
2.76111e-233
7.94416e-233
2.09391e-232
5.1043e-232
1.15995e-231
2.47409e-231
4.982e-231
9.51956e-231
1.73382e-230
3.02197e-230
5.05844e-230
8.1577e-230
1.27113e-229
1.91875e-229
2.8124e-229
4.01153e-229
5.57929e-229
7.58006e-229
1.00768e-228
1.3128e-228
1.6785e-228
2.10895e-228
2.60716e-228
3.17483e-228
3.81225e-228
4.51833e-228
5.29064e-228
6.12549e-228
7.01808e-228
7.96277e-228
8.95265e-228
1.82897e-239
3.73171e-237
6.72811e-236
6.93376e-235
5.09661e-234
2.93549e-233
1.39722e-232
5.68931e-232
2.03096e-231
6.47382e-231
1.86919e-230
4.9451e-230
1.21016e-229
2.76123e-229
5.91415e-229
1.19603e-228
2.29536e-228
4.19916e-228
7.35173e-228
1.23613e-227
2.00243e-227
3.13409e-227
4.75169e-227
6.995e-227
1.00199e-226
1.39938e-226
1.9089e-226
2.54762e-226
3.33163e-226
4.27532e-226
5.39068e-226
6.6867e-226
8.16897e-226
9.83942e-226
1.16962e-225
1.37338e-225
1.59433e-225
1.83125e-225
2.08271e-225
2.3469e-225
3.90281e-237
7.96469e-235
1.43784e-233
1.48436e-232
1.09338e-231
6.31311e-231
3.01334e-230
1.23085e-229
4.40901e-229
1.41064e-228
4.08918e-228
1.0864e-227
2.67041e-227
6.12128e-227
1.31736e-226
2.6772e-226
5.16378e-226
9.49482e-226
1.67087e-225
2.82393e-225
4.59813e-225
7.2336e-225
1.10226e-224
1.63075e-224
2.34738e-224
3.294e-224
4.51428e-224
6.05195e-224
7.94894e-224
1.02434e-223
1.2968e-223
1.61482e-223
1.98011e-223
2.39347e-223
2.85475e-223
3.36284e-223
3.91575e-223
4.51064e-223
5.14405e-223
5.81151e-223
7.72436e-235
1.57669e-232
2.85026e-231
2.94804e-230
2.17658e-229
1.26019e-228
6.03393e-228
2.47332e-227
8.89399e-227
2.85757e-226
8.32099e-226
2.22131e-225
5.48767e-225
1.26456e-224
2.73634e-224
5.59224e-224
1.08484e-223
2.00639e-223
3.55164e-223
6.03818e-223
9.89e-223
1.565e-222
2.39863e-222
3.56896e-222
5.16615e-222
7.28919e-222
1.00427e-221
1.3533e-221
1.78636e-221
2.31307e-221
2.94184e-221
3.6795e-221
4.53096e-221
5.49896e-221
6.58398e-221
7.78416e-221
9.09544e-221
1.05117e-220
1.2025e-220
1.36251e-220
1.41802e-232
2.89508e-230
5.24139e-229
5.43239e-228
4.02108e-227
2.33519e-226
1.12203e-225
4.61736e-225
1.66764e-224
5.38353e-224
1.57568e-223
4.22932e-223
1.05086e-222
2.43618e-222
5.30457e-222
1.09108e-221
2.13054e-221
3.96681e-221
7.06938e-221
1.21003e-220
1.99535e-220
3.17869e-220
4.90423e-220
7.34477e-220
1.06997e-219
1.5191e-219
2.10564e-219
2.85412e-219
3.78882e-219
4.93274e-219
6.30651e-219
7.92747e-219
9.80876e-219
1.19588e-218
1.43807e-218
1.70724e-218
2.00265e-218
2.32306e-218
2.66682e-218
3.03166e-218
2.41469e-230
4.93104e-228
8.9418e-227
9.28861e-226
6.89494e-225
4.01766e-224
1.93799e-223
8.01059e-223
2.90744e-222
9.43655e-222
2.77805e-221
7.50303e-221
1.87656e-220
4.38032e-220
9.60604e-220
1.99041e-219
3.91595e-219
7.34685e-219
1.31942e-218
2.27588e-218
3.78192e-218
6.07093e-218
9.43731e-218
1.42386e-217
2.08931e-217
2.98728e-217
4.16912e-217
5.6886e-217
7.59991e-217
9.95539e-217
1.28031e-216
1.61848e-216
2.01336e-216
2.46727e-216
2.98143e-216
3.55587e-216
4.18945e-216
4.87989e-216
5.62394e-216
6.41694e-216
3.81438e-228
7.79121e-226
1.41532e-224
1.47386e-223
1.09748e-222
6.41903e-222
3.10992e-221
1.29189e-220
4.71505e-220
1.53972e-219
4.56286e-219
1.24109e-218
3.12735e-218
7.35737e-218
1.62665e-217
3.39884e-217
6.74443e-217
1.27638e-216
2.31241e-216
4.0238e-216
6.7451e-216
1.09215e-215
1.71226e-215
2.60502e-215
3.85376e-215
5.55392e-215
7.81091e-215
1.0737e-214
1.44474e-214
1.90554e-214
2.46677e-214
3.13794e-214
3.92698e-214
4.83981e-214
5.8801e-214
7.04907e-214
8.34547e-214
9.76553e-214
1.13033e-213
1.29498e-213
5.58985e-226
1.14206e-223
2.07858e-222
2.17048e-221
1.62181e-220
9.52569e-220
4.63778e-219
1.93742e-218
7.1157e-218
2.3398e-217
6.98615e-217
1.91557e-216
4.86819e-216
1.15555e-215
2.57859e-215
5.43947e-215
1.08992e-214
2.08309e-214
3.81147e-214
6.69828e-214
1.13393e-213
1.85395e-213
2.93449e-213
4.50641e-213
6.72757e-213
9.78161e-213
1.38747e-212
1.92303e-212
2.60814e-212
3.46624e-212
4.51985e-212
5.78964e-212
7.29342e-212
9.04535e-212
1.10552e-211
1.33279e-211
1.58634e-211
1.86563e-211
2.1697e-211
2.49688e-211
7.60009e-224
1.55317e-221
2.83272e-220
2.96687e-219
2.22545e-218
1.31326e-217
6.42925e-217
2.70288e-216
9.99795e-216
3.31347e-215
9.97811e-215
2.76107e-214
7.08519e-214
1.69892e-213
3.83116e-213
8.16942e-213
1.65501e-212
3.19844e-212
5.91782e-212
1.05161e-211
1.79994e-211
2.97494e-211
4.75916e-211
7.38474e-211
1.11363e-210
1.63507e-210
2.34124e-210
3.27452e-210
4.47996e-210
6.00371e-210
7.89116e-210
1.0185e-209
1.29233e-209
1.61376e-209
1.98517e-209
2.40801e-209
2.88277e-209
3.40893e-209
3.98502e-209
4.60823e-209
9.58763e-222
1.95989e-219
3.58267e-218
3.76481e-217
2.83612e-216
1.68243e-215
8.28786e-215
3.50925e-214
1.30857e-213
4.37559e-213
1.33047e-212
3.71996e-212
9.6511e-212
2.34089e-211
5.34184e-211
1.15301e-210
2.36488e-210
4.62754e-210
8.66923e-210
1.55972e-209
2.70243e-209
4.52051e-209
7.31702e-209
1.14842e-208
1.75112e-208
2.59871e-208
3.75959e-208
5.31055e-208
7.33469e-208
9.91883e-208
1.31502e-207
1.71127e-207
2.18837e-207
2.75296e-207
3.41037e-207
4.16427e-207
5.01656e-207
5.96726e-207
7.01455e-207
8.15401e-207
1.12231e-219
2.29488e-217
4.20551e-216
4.43558e-215
3.35743e-214
2.00341e-213
9.93826e-213
4.24217e-212
1.59635e-211
5.39195e-211
1.65758e-210
4.68925e-210
1.23175e-209
3.02651e-209
6.99915e-209
1.53146e-208
3.1847e-208
6.31864e-208
1.20018e-207
2.18901e-207
3.8441e-207
6.51549e-207
1.06824e-206
1.69763e-206
2.61994e-206
3.93346e-206
5.75444e-206
8.2157e-206
1.14638e-205
1.56546e-205
2.09481e-205
2.75021e-205
3.54652e-205
4.49705e-205
5.61291e-205
6.90247e-205
8.37101e-205
1.00204e-204
1.18492e-204
1.3851e-204
1.21915e-217
2.49367e-215
4.58235e-214
4.85273e-213
3.69279e-212
2.2181e-211
1.10901e-210
4.77716e-210
1.81627e-209
6.20509e-209
1.93131e-208
5.53639e-208
1.47468e-207
3.6763e-207
8.62947e-207
1.91702e-206
4.04789e-206
8.15493e-206
1.57265e-205
2.91159e-205
5.18859e-205
8.92114e-205
1.48314e-204
2.38894e-204
3.73501e-204
5.67802e-204
8.4067e-204
1.21406e-203
1.71266e-203
2.36325e-203
3.19387e-203
4.23276e-203
5.50723e-203
7.04248e-203
8.86037e-203
1.09785e-202
1.34092e-202
1.61592e-202
1.92293e-202
2.26115e-202
1.2291e-215
2.51485e-213
4.63518e-212
4.93085e-211
3.77461e-210
2.28407e-209
1.15214e-208
5.01419e-208
1.92867e-207
6.67427e-207
2.10648e-206
6.12888e-206
1.65815e-205
4.20096e-205
1.00253e-204
2.26471e-204
4.86308e-204
9.96246e-204
1.95325e-203
3.67543e-203
6.65455e-203
1.16196e-202
1.96084e-202
3.20427e-202
5.07976e-202
7.82584e-202
1.17353e-201
1.71554e-201
2.44835e-201
3.41593e-201
4.66526e-201
6.24465e-201
8.20196e-201
1.05825e-200
1.34271e-200
1.67701e-200
2.06377e-200
2.50469e-200
3.0005e-200
3.55042e-200
1.15012e-213
2.35407e-211
4.35323e-210
4.65411e-209
3.58649e-208
2.1883e-207
1.11488e-206
4.90844e-206
1.91285e-205
6.71578e-205
2.15294e-204
6.36877e-204
1.75318e-203
4.5218e-203
1.09892e-202
2.5284e-202
5.52965e-202
1.15354e-201
2.3024e-201
4.40878e-201
8.11923e-201
1.44127e-200
2.47123e-200
4.1007e-200
6.59728e-200
1.03081e-199
1.56674e-199
2.31999e-199
3.35181e-199
4.73125e-199
6.53353e-199
8.8377e-199
1.17238e-198
1.52695e-198
1.9547e-198
2.46194e-198
3.05382e-198
3.73402e-198
4.5047e-198
5.36562e-198
9.99001e-212
2.04554e-209
3.79647e-208
4.08146e-207
3.1686e-206
1.95139e-205
1.00535e-204
4.48416e-204
1.77334e-203
6.32744e-203
2.06407e-202
6.21933e-202
1.74512e-201
4.59025e-201
1.13795e-200
2.6709e-200
5.95811e-200
1.26742e-199
2.57854e-199
5.03045e-199
9.43316e-199
1.70404e-198
2.9714e-198
5.01111e-198
8.18801e-198
1.29848e-197
2.00176e-197
3.0045e-197
4.39697e-197
6.28294e-197
8.77768e-197
1.20048e-196
1.60922e-196
2.11671e-196
2.73508e-196
3.47533e-196
4.34684e-196
5.35687e-196
6.51038e-196
7.8086e-196
8.05576e-210
1.65015e-207
3.07496e-206
3.32623e-205
2.60374e-204
1.62032e-203
8.45324e-203
3.82573e-202
1.53799e-201
5.58741e-201
1.8582e-200
5.71385e-200
1.63729e-199
4.39973e-199
1.11447e-198
2.67254e-198
6.08961e-198
1.32266e-197
2.74615e-197
5.46421e-197
1.0444e-196
1.9217e-196
3.41081e-196
5.85069e-196
9.71666e-196
1.56505e-195
2.44878e-195
3.72782e-195
5.52948e-195
8.00302e-195
1.13175e-194
1.56578e-194
2.12195e-194
2.82015e-194
3.67981e-194
4.71914e-194
5.95422e-194
7.39827e-194
9.06125e-194
1.09475e-193
6.03135e-208
1.23602e-205
2.31345e-204
2.51968e-203
1.9907e-202
1.25335e-201
6.63124e-201
3.05041e-200
1.24893e-199
4.62873e-199
1.57248e-198
4.94397e-198
1.44941e-197
3.98595e-197
1.0333e-196
2.53538e-196
5.90888e-196
1.31201e-195
2.78306e-195
5.65379e-195
1.10251e-194
2.06812e-194
3.7393e-194
6.52907e-194
1.10291e-193
1.80553e-193
2.86917e-193
4.43274e-193
6.66815e-193
9.78088e-193
1.40083e-192
1.96153e-192
2.68877e-192
3.61227e-192
4.7618e-192
6.16597e-192
7.85096e-192
9.83929e-192
1.21491e-191
1.47905e-191
4.1932e-206
8.5973e-204
1.61702e-202
1.77461e-201
1.41658e-200
9.03582e-200
4.85626e-199
2.27478e-198
9.50426e-198
3.60075e-197
1.25208e-196
4.03288e-196
1.21181e-195
3.41622e-195
9.07718e-195
2.28208e-194
5.44668e-194
1.23774e-193
2.6852e-193
5.57474e-193
1.11008e-192
2.12464e-192
3.91639e-192
6.96597e-192
1.19773e-191
1.99418e-191
3.22048e-191
5.05259e-191
7.71262e-191
1.14714e-190
1.66481e-190
2.3606e-190
3.27451e-190
4.44903e-190
5.92773e-190
7.75351e-190
9.96686e-190
1.2604e-189
1.56955e-189
1.92614e-189
2.70743e-204
5.55393e-202
1.05025e-200
1.16237e-199
9.38584e-199
6.07451e-198
3.3222e-197
1.58779e-196
6.78374e-196
2.63269e-195
9.38922e-195
3.10409e-194
9.57675e-194
2.77195e-193
7.56e-193
1.94994e-192
4.77161e-192
1.11094e-191
2.46729e-191
5.23955e-191
1.06631e-190
2.08402e-190
3.91939e-190
7.10662e-190
1.24459e-189
2.10892e-189
3.46333e-189
5.52106e-189
8.55686e-189
1.29125e-188
1.89989e-188
2.72932e-188
3.83316e-188
5.26959e-188
7.09955e-188
9.3846e-188
1.21844e-187
1.55541e-187
1.95423e-187
2.41843e-187
1.62374e-202
3.33276e-200
6.33977e-199
7.08266e-198
5.79263e-197
3.81008e-196
2.12449e-195
1.03813e-194
4.54521e-194
1.81073e-193
6.63652e-193
2.25611e-192
7.15859e-192
2.13056e-191
5.97221e-191
1.58222e-190
3.97398e-190
9.48879e-190
2.15938e-189
4.69471e-189
9.7727e-189
1.95192e-188
3.74818e-188
6.933e-188
1.23754e-187
2.13551e-187
3.56844e-187
5.78361e-187
9.10629e-187
1.39495e-186
2.08199e-186
3.03181e-186
4.31327e-186
6.00267e-186
8.18175e-186
1.09349e-185
1.43463e-185
1.84958e-185
2.34567e-185
2.92859e-185
9.04661e-201
1.858e-198
3.5576e-197
4.01596e-196
3.33145e-195
2.23088e-194
1.27081e-193
6.3627e-193
2.86098e-192
1.17244e-191
4.42458e-191
1.54939e-190
5.06384e-190
1.55181e-189
4.47625e-189
1.21945e-188
3.14686e-188
7.71326e-188
1.80026e-187
4.01042e-187
8.54601e-187
1.7457e-186
3.42517e-186
6.46749e-186
1.17743e-185
2.0704e-185
3.5224e-185
5.80773e-185
9.29504e-185
1.44623e-184
2.19082e-184
3.23572e-184
4.66574e-184
6.57687e-184
9.07416e-184
1.22687e-183
1.62737e-183
2.12001e-183
2.7153e-183
3.42183e-183
4.68317e-199
9.62489e-197
1.85627e-195
2.11966e-194
1.78624e-193
1.22007e-192
7.1153e-192
3.65832e-191
1.69305e-190
7.15156e-190
2.78402e-189
1.00585e-188
3.39094e-188
1.07132e-187
3.18364e-187
8.92779e-187
2.36942e-186
5.96733e-186
1.42967e-185
3.26605e-185
7.13018e-185
1.49068e-184
2.99054e-184
5.76824e-184
1.07172e-183
1.92153e-183
3.33048e-183
5.58973e-183
9.09926e-183
1.43891e-182
2.21372e-182
3.31819e-182
4.85254e-182
6.93265e-182
9.68813e-182
1.32592e-181
1.77921e-181
2.34343e-181
3.03289e-181
3.85995e-181
2.25296e-197
4.63379e-195
9.00804e-194
1.04177e-192
8.93291e-192
6.23607e-191
3.73146e-190
1.97455e-189
9.42534e-189
4.11174e-188
1.65397e-187
6.17456e-187
2.14995e-186
7.01096e-186
2.14874e-185
6.2089e-185
1.69633e-184
4.39353e-184
1.08141e-183
2.53544e-183
5.67484e-183
1.21511e-182
2.49416e-182
4.91745e-182
9.3303e-182
1.70685e-181
3.01591e-181
5.15599e-181
8.54277e-181
1.37395e-180
2.14827e-180
3.27033e-180
4.85381e-180
7.03308e-180
9.96173e-180
1.38096e-179
1.87583e-179
2.49951e-179
3.2707e-179
4.20622e-179
1.00741e-195
2.07371e-193
4.06664e-192
4.76939e-191
4.1687e-190
2.98059e-189
1.83404e-188
1.00107e-187
4.93889e-187
2.22918e-186
9.28027e-186
3.58468e-185
1.29074e-184
4.34933e-184
1.3762e-183
4.10156e-183
1.15462e-182
3.07807e-182
7.78975e-182
1.87576e-181
4.30727e-181
9.45221e-181
1.98644e-180
4.00598e-180
7.76758e-180
1.45088e-179
2.61543e-179
4.55809e-179
7.69277e-179
1.25934e-178
2.00279e-178
3.09883e-178
4.67136e-178
6.87001e-178
9.86963e-178
1.38679e-177
1.90809e-177
2.57371e-177
3.40703e-177
4.42985e-177
4.18771e-194
8.62811e-192
1.70834e-190
2.0347e-189
1.81623e-188
1.33293e-187
8.45358e-187
4.76987e-186
2.43697e-185
1.13994e-184
4.91855e-184
1.9683e-183
7.33747e-183
2.55759e-182
8.36335e-182
2.5733e-181
7.47055e-181
2.05151e-180
5.34196e-180
1.32205e-179
3.11667e-179
7.01438e-179
1.51034e-178
3.11781e-178
6.18292e-178
1.18018e-177
2.17231e-177
3.86265e-177
6.64626e-177
1.10841e-176
1.79443e-176
2.82421e-176
4.32739e-176
6.46401e-176
9.42522e-176
1.34319e-175
1.87309e-175
2.55894e-175
3.42876e-175
4.50952e-175
1.61865e-192
3.33835e-190
6.67984e-189
8.09192e-188
7.39121e-187
5.58032e-186
3.65598e-185
2.1369e-184
1.13264e-183
5.4993e-183
2.46252e-182
1.02215e-181
3.94931e-181
1.42547e-180
4.82186e-180
1.53303e-179
4.59331e-179
1.30029e-178
3.48618e-178
8.87326e-178
2.14908e-177
4.96416e-177
1.09604e-176
2.31806e-176
4.70579e-176
9.18768e-176
1.72844e-175
3.13871e-175
5.51099e-175
9.37107e-175
1.54561e-174
2.47629e-174
3.85933e-174
5.85904e-174
8.67594e-174
1.25469e-173
1.77428e-173
2.45631e-173
3.33298e-173
4.43627e-173
5.81874e-191
1.20142e-188
2.43188e-187
3.00116e-186
2.81092e-185
2.1882e-184
1.48421e-183
9.00409e-183
4.95944e-182
2.50292e-181
1.16461e-180
5.01992e-180
2.01241e-179
7.52894e-179
2.63684e-178
8.66934e-178
2.68279e-177
7.83407e-177
2.16408e-176
5.66905e-176
1.41173e-175
3.34982e-175
7.59123e-175
1.64652e-174
3.42521e-174
6.84733e-174
1.31787e-173
2.44626e-173
4.38667e-173
7.61142e-173
1.27986e-172
2.08866e-172
3.3129e-172
5.11435e-172
7.69485e-172
1.12982e-171
1.62095e-171
2.27516e-171
3.128e-171
4.2159e-171
1.9458e-189
4.02256e-187
8.24589e-186
1.03847e-184
9.9949e-184
8.04065e-183
5.65824e-182
3.56923e-181
2.04604e-180
1.07472e-179
5.20247e-179
2.33125e-178
9.70647e-178
3.76748e-177
1.36721e-176
4.65168e-176
1.48771e-175
4.48437e-175
1.27728e-174
3.44662e-174
8.8332e-174
2.15534e-173
5.01864e-173
1.11757e-172
2.38489e-172
4.88648e-172
9.63036e-172
1.82875e-171
3.35156e-171
5.93766e-171
1.01843e-170
1.69378e-170
2.73545e-170
4.29616e-170
6.57085e-170
9.80047e-170
1.42736e-169
2.03253e-169
2.83342e-169
3.87006e-169
6.05437e-188
1.25335e-185
2.60495e-184
3.35391e-183
3.32434e-182
2.76982e-181
2.0262e-180
1.33122e-179
7.95324e-179
4.3535e-178
2.19496e-177
1.02358e-176
4.43047e-176
1.78548e-175
6.71852e-175
2.36698e-174
7.82893e-174
2.43777e-173
7.16572e-173
1.99377e-172
5.26461e-172
1.32249e-171
3.16771e-171
7.25007e-171
1.58868e-170
3.33909e-170
6.74349e-170
1.31081e-169
2.4565e-169
4.44545e-169
7.78101e-169
1.31936e-168
2.17055e-168
3.46994e-168
5.39837e-168
8.185e-168
1.21115e-167
1.75137e-167
2.47821e-167
3.43442e-167
1.7533e-186
3.63517e-184
7.66978e-183
1.01145e-181
1.0347e-180
8.94784e-180
6.81689e-179
4.67189e-178
2.91285e-177
1.66357e-176
8.74533e-176
4.24816e-175
1.91307e-174
8.01022e-174
3.12723e-173
1.14158e-172
3.90787e-172
1.25816e-171
3.82073e-171
1.09744e-170
2.9893e-170
7.74007e-170
1.90921e-169
4.49541e-169
1.01229e-168
2.1839e-168
4.52182e-168
9.00097e-168
1.72545e-167
3.19075e-167
5.70163e-167
9.86169e-167
1.65375e-166
2.69317e-166
4.26594e-166
6.58243e-166
9.90864e-166
1.45714e-165
2.09628e-165
2.95268e-165
4.72695e-185
9.81723e-183
2.10546e-181
2.8494e-180
3.01495e-179
2.71151e-178
2.15504e-177
1.54283e-176
1.00512e-175
5.99598e-175
3.28983e-174
1.66603e-173
7.81096e-173
3.39999e-172
1.37802e-171
5.2161e-171
1.84972e-170
6.16429e-170
1.93632e-169
5.74897e-169
1.61736e-168
4.32117e-168
1.09864e-167
2.66311e-167
6.16574e-167
1.36588e-166
2.90034e-166
5.91386e-166
1.16004e-165
2.19308e-165
4.00326e-165
7.06874e-165
1.20953e-164
2.00903e-164
3.24477e-164
5.10384e-164
7.83042e-164
1.17346e-163
1.72011e-163
2.46775e-163
1.1868e-183
2.46948e-181
5.39084e-180
7.50164e-179
8.22709e-178
7.70947e-177
6.40218e-176
4.79437e-175
3.26754e-174
2.03814e-173
1.16814e-172
6.17135e-172
3.01392e-171
1.36461e-170
5.74577e-170
2.25725e-169
8.30148e-169
2.86732e-168
9.32889e-168
2.86656e-167
8.33815e-167
2.30062e-166
6.03256e-166
1.506e-165
3.58587e-165
8.15857e-165
1.77709e-164
3.7131e-164
7.45699e-164
1.44235e-163
2.69234e-163
4.8596e-163
8.49793e-163
1.44233e-162
2.38017e-162
3.82518e-162
5.99601e-162
9.18046e-162
1.37477e-161
2.01488e-161
2.77578e-182
5.78787e-180
1.28789e-178
1.84637e-177
2.10303e-176
2.05701e-175
1.78747e-174
1.40194e-173
1.00066e-172
6.53228e-172
3.91357e-171
2.15806e-170
1.09841e-169
5.17629e-169
2.26622e-168
9.25051e-168
3.53289e-167
1.26645e-166
4.27319e-166
1.36037e-165
4.09443e-165
1.16725e-164
3.15749e-164
8.1193e-164
1.98849e-163
4.64763e-163
1.03888e-162
2.22578e-162
4.58089e-162
9.07697e-162
1.73542e-161
3.20818e-161
5.74612e-161
9.99009e-161
1.68889e-160
2.78082e-160
4.46616e-160
7.00644e-160
1.0748e-159
1.62187e-159
6.04985e-181
1.26439e-178
2.87194e-177
4.25007e-176
5.03726e-175
5.15125e-174
4.69044e-173
3.85752e-172
2.8864e-171
1.9734e-170
1.23651e-169
7.12014e-169
3.77903e-168
1.85507e-167
8.45407e-167
3.59037e-166
1.42594e-165
5.312e-165
1.86074e-164
6.14152e-164
1.91343e-163
5.63701e-163
1.57316e-162
4.16713e-162
1.04996e-161
2.52216e-161
5.79017e-161
1.27352e-160
2.69025e-160
5.47153e-160
1.0739e-159
2.0385e-159
3.74997e-159
6.69753e-159
1.16333e-158
1.96813e-158
3.2478e-158
5.23469e-158
8.25431e-158
1.31132e-157
1.22914e-179
2.5754e-177
5.98016e-176
9.15241e-175
1.13083e-173
1.21093e-172
1.15686e-171
9.98712e-171
7.84021e-170
5.61701e-169
3.68247e-168
2.21528e-167
1.22692e-166
6.2802e-166
2.98312e-165
1.32e-164
5.45894e-164
2.11553e-163
7.69845e-163
2.63522e-162
8.49929e-162
2.58744e-161
7.44989e-161
2.03329e-160
5.27347e-160
1.30317e-159
3.07682e-159
6.95994e-159
1.51245e-158
3.16548e-158
6.39608e-158
1.25037e-157
2.36946e-157
4.36004e-157
7.80237e-157
1.35977e-156
2.31105e-156
3.83591e-156
6.26704e-156
1.09741e-155
2.32867e-178
4.89289e-176
1.16319e-174
1.84451e-173
2.37993e-172
2.67253e-171
2.68201e-170
2.43262e-169
2.00476e-168
1.50566e-167
1.03316e-166
6.49694e-166
3.75832e-165
2.00852e-164
9.95835e-164
4.59738e-163
1.98191e-162
7.9953e-162
3.02334e-161
1.07329e-160
3.58311e-160
1.12716e-159
3.349e-159
9.42347e-159
2.51849e-158
6.4125e-158
1.5603e-157
3.63899e-157
8.15765e-157
1.76227e-156
3.67695e-156
7.42456e-156
1.45333e-155
2.76197e-155
5.10293e-155
9.17794e-155
1.60932e-154
2.75907e-154
4.76347e-154
9.83453e-154
4.11538e-177
8.67367e-175
2.11423e-173
3.47997e-172
4.69681e-171
5.53842e-170
5.84455e-169
5.57346e-168
4.82382e-167
3.79898e-166
2.72964e-165
1.7957e-164
1.08623e-163
6.06936e-163
3.14539e-162
1.5167e-161
6.82031e-161
2.86477e-160
1.12557e-159
4.14313e-159
1.43156e-158
4.65437e-158
1.42799e-157
4.14743e-157
1.14417e-156
3.00846e-156
7.56437e-156
1.82436e-155
4.23203e-155
9.46497e-155
2.04499e-154
4.27555e-154
8.66241e-154
1.70289e-153
3.25226e-153
6.04312e-153
1.09484e-152
1.95262e-152
3.69725e-152
9.63051e-152
6.78682e-176
1.43523e-173
3.59242e-172
6.14854e-171
8.69415e-170
1.07788e-168
1.19709e-167
1.2008e-166
1.09176e-165
9.01862e-165
6.78944e-164
4.67723e-163
2.96256e-162
1.73318e-161
9.39951e-161
4.73745e-160
2.22265e-159
9.71919e-159
3.96659e-158
1.51366e-157
5.41401e-157
1.82048e-156
5.77463e-156
1.73438e-155
4.95094e-155
1.34815e-154
3.51362e-154
8.79047e-154
2.11631e-153
4.91274e-153
1.1014e-152
2.38792e-152
5.01252e-152
1.01993e-151
2.01446e-151
3.86982e-151
7.26341e-151
1.37e-150
2.99572e-150
1.0193e-149
1.04482e-174
2.21765e-172
5.70865e-171
1.01773e-169
1.50992e-168
1.97021e-167
2.30428e-166
2.43203e-165
2.32323e-164
2.01381e-163
1.58972e-162
1.14825e-161
7.62635e-161
4.67721e-160
2.65658e-159
1.39986e-158
6.85103e-158
3.11768e-157
1.32134e-156
5.22788e-156
1.93687e-155
6.74428e-155
2.21608e-154
6.90017e-154
2.04413e-153
5.7826e-153
1.567e-152
4.07803e-152
1.02125e-151
2.46471e-151
5.73955e-151
1.291e-150
2.80795e-150
5.91342e-150
1.20807e-149
2.40223e-149
4.70298e-149
9.66063e-149
2.56732e-148
1.12314e-147
1.50217e-173
3.2012e-171
8.48763e-170
1.57879e-168
2.46088e-167
3.38245e-166
4.16761e-165
4.62885e-164
4.64682e-163
4.22906e-162
3.50437e-161
2.65751e-160
1.85319e-159
1.19253e-158
7.09609e-158
3.90863e-157
1.99462e-156
9.44274e-156
4.15603e-155
1.70582e-154
6.55445e-154
2.36799e-153
8.08075e-153
2.61624e-152
8.06868e-152
2.37844e-151
6.71882e-151
1.82246e-150
4.75327e-150
1.19333e-149
2.88643e-149
6.73331e-149
1.51675e-148
3.30526e-148
6.98839e-148
1.44305e-147
2.98918e-147
6.95509e-147
2.31201e-146
1.23532e-145
2.01787e-172
4.31902e-170
1.18129e-168
2.29629e-167
3.76475e-166
5.45403e-165
7.08087e-164
8.27673e-163
8.73467e-162
8.35306e-161
7.2745e-160
5.79945e-159
4.25043e-158
2.87114e-157
1.78961e-156
1.02993e-155
5.47777e-155
2.69743e-154
1.23345e-153
5.25807e-153
2.09932e-152
7.88935e-152
2.80436e-151
9.47056e-151
3.04967e-150
9.39006e-150
2.7699e-149
7.83787e-149
2.12942e-148
5.5589e-148
1.39563e-147
3.37386e-147
7.8673e-147
1.77439e-146
3.89001e-146
8.40103e-146
1.88489e-145
5.16259e-145
2.13399e-144
1.31373e-143
2.53389e-171
5.44933e-169
1.53984e-167
3.13265e-166
5.40711e-165
8.25927e-164
1.1299e-162
1.39011e-161
1.543e-160
1.55208e-159
1.42237e-158
1.19343e-157
9.1981e-157
6.52191e-156
4.25625e-155
2.55784e-154
1.41746e-153
7.26258e-153
3.45379e-152
1.53189e-151
6.37108e-151
2.49792e-150
9.27776e-150
3.27751e-149
1.10449e-148
3.55746e-148
1.09645e-147
3.23613e-147
9.15187e-147
2.48184e-146
6.46122e-146
1.61761e-145
3.90464e-145
9.12594e-145
2.08313e-144
4.76599e-144
1.19315e-143
3.93766e-143
1.95696e-142
1.32449e-141
2.97607e-170
6.43334e-168
1.88093e-166
4.01e-165
7.29179e-164
1.17453e-162
1.69312e-161
2.19297e-160
2.5621e-159
2.71382e-158
2.62013e-157
2.31542e-156
1.87688e-155
1.3963e-154
9.53457e-154
5.9807e-153
3.45356e-152
1.84262e-151
9.12813e-151
4.22253e-150
1.83462e-149
7.5274e-149
2.92953e-148
1.08492e-147
3.83105e-147
1.29129e-146
4.15673e-146
1.27844e-145
3.75905e-145
1.05778e-144
2.85337e-144
7.39688e-144
1.84988e-143
4.49306e-143
1.07594e-142
2.65736e-142
7.63633e-142
3.03533e-141
1.73668e-140
1.25187e-139
3.27131e-169
7.11109e-167
2.15422e-165
4.81809e-164
9.23383e-163
1.56841e-161
2.38236e-160
3.2499e-159
4.00007e-158
4.4666e-157
4.54726e-156
4.23361e-155
3.60808e-154
2.81441e-153
2.00963e-152
1.31555e-151
7.92046e-151
4.40674e-150
2.27909e-149
1.1026e-148
5.01972e-148
2.16128e-147
8.83214e-147
3.43307e-146
1.27058e-145
4.47898e-145
1.50419e-144
4.81457e-144
1.47008e-143
4.2888e-143
1.19839e-142
3.21881e-142
8.35782e-142
2.1201e-141
5.38785e-141
1.46866e-140
4.93063e-140
2.31159e-139
1.46457e-138
1.10252e-137
3.36746e-168
7.36419e-166
2.31454e-164
5.43548e-163
1.09811e-161
1.96666e-160
3.14812e-159
4.52571e-158
5.87413e-157
6.92147e-156
7.43393e-155
7.29056e-154
6.52827e-153
5.33527e-152
3.9822e-151
2.72133e-150
1.71017e-149
9.94168e-149
5.3819e-148
2.73099e-147
1.30634e-146
5.91462e-146
2.54088e-145
1.03676e-144
4.01876e-144
1.47983e-143
5.17746e-143
1.72239e-142
5.45623e-142
1.64971e-141
4.77717e-141
1.33164e-140
3.60299e-140
9.6176e-140
2.63298e-139
8.08214e-139
3.17506e-138
1.70281e-137
1.16055e-136
9.01718e-136
3.24844e-167
7.14979e-165
2.33414e-163
5.75911e-162
1.22651e-160
2.31593e-159
3.90781e-158
5.92459e-157
8.11677e-156
1.00989e-154
1.14436e-153
1.18153e-152
1.1107e-151
9.50459e-151
7.41529e-150
5.29417e-149
3.47854e-148
2.11791e-147
1.20344e-146
6.42261e-146
3.23476e-145
1.54192e-144
6.96429e-144
2.98073e-143
1.20856e-142
4.64174e-142
1.68957e-141
5.83603e-141
1.91718e-140
6.00939e-140
1.80575e-139
5.23856e-139
1.48488e-138
4.2131e-138
1.26274e-137
4.41912e-137
2.00578e-136
1.19404e-135
8.584e-135
6.83567e-134
2.93854e-166
6.51228e-164
2.21052e-162
5.7326e-161
1.28688e-159
2.56186e-158
4.55857e-157
7.29432e-156
1.05562e-154
1.38726e-153
1.65786e-152
1.80056e-151
1.77551e-150
1.59035e-149
1.29748e-148
9.69064e-148
6.67123e-147
4.26525e-146
2.55071e-145
1.4348e-144
7.61834e-144
3.82393e-143
1.81452e-142
8.13545e-142
3.445e-141
1.37807e-140
5.21306e-140
1.86866e-139
6.36696e-139
2.0711e-138
6.4724e-138
1.96206e-137