/*--------------------------------*- C++ -*----------------------------------*\
  =========                 |
  \\      /  F ield         | OpenFOAM: The Open Source CFD Toolbox
   \\    /   O peration     | Website:  https://openfoam.org
    \\  /    A nd           | Version:  6
     \\/     M anipulation  |
\*---------------------------------------------------------------------------*/
FoamFile
{
    version     2.0;
    format      ascii;
    class       volVectorField;
    location    "200";
    object      U;
}
// * * * * * * * * * * * * * * * * * * * * * * * * * * * * * * * * * * * * * //

dimensions      [0 1 -1 0 0 0 0];

internalField   nonuniform List<vector> 
78400
(
(0.999999 -5.32294e-06 0)
(1.00002 -1.67315e-05 0)
(1.00005 -2.6316e-05 0)
(1.0001 -3.445e-05 0)
(1.00015 -4.19003e-05 0)
(1.00021 -4.88839e-05 0)
(1.00027 -5.52921e-05 0)
(1.00034 -6.09834e-05 0)
(1.00041 -6.59429e-05 0)
(1.00047 -7.02531e-05 0)
(1.00053 -7.40402e-05 0)
(1.0006 -7.74173e-05 0)
(1.00066 -8.04676e-05 0)
(1.00072 -8.3242e-05 0)
(1.00077 -8.57697e-05 0)
(1.00082 -8.80673e-05 0)
(1.00087 -9.01472e-05 0)
(1.00092 -9.20213e-05 0)
(1.00097 -9.37033e-05 0)
(1.00101 -9.52081e-05 0)
(1.00105 -9.6552e-05 0)
(1.00109 -9.77513e-05 0)
(1.00112 -9.88219e-05 0)
(1.00115 -9.97787e-05 0)
(1.00118 -0.000100635 0)
(1.00121 -0.000101404 0)
(1.00124 -0.000102095 0)
(1.00127 -0.000102719 0)
(1.00129 -0.000103282 0)
(1.00131 -0.000103793 0)
(1.00133 -0.000104256 0)
(1.00135 -0.000104678 0)
(1.00137 -0.000105063 0)
(1.00138 -0.000105415 0)
(1.0014 -0.000105736 0)
(1.00141 -0.00010603 0)
(1.00143 -0.0001063 0)
(1.00144 -0.000106548 0)
(1.00145 -0.000106776 0)
(1.00146 -0.000106985 0)
(0.999999 -1.61069e-05 0)
(1.00002 -5.06832e-05 0)
(1.00006 -7.98695e-05 0)
(1.0001 -0.000104897 0)
(1.00016 -0.000127956 0)
(1.00022 -0.000149693 0)
(1.00028 -0.000169727 0)
(1.00035 -0.000187638 0)
(1.00042 -0.00020336 0)
(1.00048 -0.00021714 0)
(1.00055 -0.000229342 0)
(1.00062 -0.000240301 0)
(1.00068 -0.000250256 0)
(1.00074 -0.000259354 0)
(1.0008 -0.000267679 0)
(1.00085 -0.000275279 0)
(1.0009 -0.000282188 0)
(1.00095 -0.000288443 0)
(1.001 -0.000294085 0)
(1.00105 -0.00029916 0)
(1.00109 -0.000303717 0)
(1.00113 -0.000307809 0)
(1.00117 -0.000311482 0)
(1.0012 -0.000314785 0)
(1.00123 -0.00031776 0)
(1.00126 -0.000320443 0)
(1.00129 -0.00032287 0)
(1.00132 -0.000325069 0)
(1.00134 -0.000327067 0)
(1.00137 -0.000328884 0)
(1.00139 -0.000330542 0)
(1.00141 -0.000332056 0)
(1.00142 -0.000333441 0)
(1.00144 -0.000334709 0)
(1.00146 -0.000335873 0)
(1.00147 -0.000336942 0)
(1.00149 -0.000337924 0)
(1.0015 -0.000338828 0)
(1.00151 -0.000339659 0)
(1.00152 -0.000340425 0)
(0.999999 -2.65547e-05 0)
(1.00002 -8.3481e-05 0)
(1.00006 -0.000131703 0)
(1.0001 -0.000173207 0)
(1.00016 -0.000211527 0)
(1.00022 -0.000247668 0)
(1.00029 -0.000281012 0)
(1.00035 -0.000310868 0)
(1.00042 -0.000337134 0)
(1.00049 -0.00036021 0)
(1.00056 -0.000380687 0)
(1.00063 -0.000399106 0)
(1.00069 -0.000415854 0)
(1.00075 -0.000431173 0)
(1.00081 -0.000445197 0)
(1.00087 -0.000458005 0)
(1.00092 -0.000469657 0)
(1.00097 -0.000480213 0)
(1.00102 -0.000489743 0)
(1.00106 -0.000498324 0)
(1.00111 -0.000506039 0)
(1.00115 -0.000512972 0)
(1.00118 -0.000519206 0)
(1.00122 -0.000524817 0)
(1.00125 -0.000529875 0)
(1.00128 -0.000534444 0)
(1.00131 -0.00053858 0)
(1.00134 -0.000542332 0)
(1.00136 -0.000545743 0)
(1.00139 -0.000548849 0)
(1.00141 -0.000551683 0)
(1.00143 -0.000554274 0)
(1.00145 -0.000556645 0)
(1.00146 -0.000558818 0)
(1.00148 -0.000560813 0)
(1.0015 -0.000562645 0)
(1.00151 -0.00056433 0)
(1.00152 -0.00056588 0)
(1.00153 -0.000567307 0)
(1.00155 -0.000568623 0)
(0.999999 -3.6902e-05 0)
(1.00002 -0.000115734 0)
(1.00006 -0.000182714 0)
(1.00011 -0.000240539 0)
(1.00016 -0.000293902 0)
(1.00023 -0.000344163 0)
(1.00029 -0.000390494 0)
(1.00036 -0.000432001 0)
(1.00043 -0.000468555 0)
(1.0005 -0.00050071 0)
(1.00057 -0.000529263 0)
(1.00064 -0.000554949 0)
(1.00071 -0.000578296 0)
(1.00077 -0.000599635 0)
(1.00083 -0.000619155 0)
(1.00089 -0.000636972 0)
(1.00094 -0.000653173 0)
(1.00099 -0.000667847 0)
(1.00104 -0.000681094 0)
(1.00109 -0.000693022 0)
(1.00113 -0.00070375 0)
(1.00117 -0.000713393 0)
(1.00121 -0.000722065 0)
(1.00125 -0.000729874 0)
(1.00128 -0.000736916 0)
(1.00131 -0.000743279 0)
(1.00134 -0.00074904 0)
(1.00137 -0.000754267 0)
(1.00139 -0.000759019 0)
(1.00142 -0.000763347 0)
(1.00144 -0.000767297 0)
(1.00146 -0.000770907 0)
(1.00148 -0.000774211 0)
(1.0015 -0.00077724 0)
(1.00151 -0.000780019 0)
(1.00153 -0.000782572 0)
(1.00154 -0.000784919 0)
(1.00156 -0.000787079 0)
(1.00157 -0.000789067 0)
(1.00158 -0.000790899 0)
(0.999999 -4.71257e-05 0)
(1.00002 -0.000147339 0)
(1.00006 -0.000232827 0)
(1.00011 -0.000306878 0)
(1.00017 -0.000375193 0)
(1.00023 -0.000439413 0)
(1.0003 -0.000498559 0)
(1.00037 -0.000551565 0)
(1.00044 -0.000598306 0)
(1.00052 -0.000639474 0)
(1.00059 -0.000676059 0)
(1.00066 -0.000708968 0)
(1.00072 -0.00073886 0)
(1.00079 -0.000766153 0)
(1.00085 -0.000791092 0)
(1.00091 -0.000813834 0)
(1.00097 -0.0008345 0)
(1.00102 -0.000853209 0)
(1.00107 -0.000870094 0)
(1.00112 -0.000885298 0)
(1.00116 -0.000898971 0)
(1.0012 -0.000911265 0)
(1.00124 -0.000922323 0)
(1.00128 -0.000932282 0)
(1.00131 -0.000941264 0)
(1.00135 -0.000949382 0)
(1.00138 -0.000956732 0)
(1.0014 -0.000963401 0)
(1.00143 -0.000969465 0)
(1.00145 -0.000974987 0)
(1.00148 -0.000980027 0)
(1.0015 -0.000984632 0)
(1.00152 -0.000988847 0)
(1.00154 -0.00099271 0)
(1.00155 -0.000996254 0)
(1.00157 -0.000999508 0)
(1.00158 -0.0010025 0)
(1.0016 -0.00100525 0)
(1.00161 -0.00100779 0)
(1.00162 -0.00101012 0)
(1 -5.73105e-05 0)
(1.00002 -0.00017853 0)
(1.00006 -0.000282399 0)
(1.00011 -0.000372711 0)
(1.00017 -0.00045595 0)
(1.00024 -0.000534004 0)
(1.00031 -0.000605786 0)
(1.00038 -0.000670129 0)
(1.00046 -0.000726931 0)
(1.00053 -0.00077702 0)
(1.00061 -0.000821553 0)
(1.00068 -0.000861596 0)
(1.00075 -0.000897928 0)
(1.00081 -0.000931053 0)
(1.00088 -0.000961275 0)
(1.00094 -0.000988798 0)
(1.001 -0.00101378 0)
(1.00105 -0.00103638 0)
(1.0011 -0.00105676 0)
(1.00115 -0.00107511 0)
(1.0012 -0.00109161 0)
(1.00124 -0.00110645 0)
(1.00128 -0.00111979 0)
(1.00132 -0.0011318 0)
(1.00136 -0.00114264 0)
(1.00139 -0.00115244 0)
(1.00142 -0.0011613 0)
(1.00145 -0.00116935 0)
(1.00148 -0.00117666 0)
(1.0015 -0.00118331 0)
(1.00152 -0.00118939 0)
(1.00155 -0.00119494 0)
(1.00157 -0.00120002 0)
(1.00158 -0.00120467 0)
(1.0016 -0.00120893 0)
(1.00162 -0.00121285 0)
(1.00163 -0.00121645 0)
(1.00165 -0.00121976 0)
(1.00166 -0.0012228 0)
(1.00167 -0.00122561 0)
(1 -6.7496e-05 0)
(1.00002 -0.000209366 0)
(1.00006 -0.000331569 0)
(1.00012 -0.000438271 0)
(1.00018 -0.00053653 0)
(1.00025 -0.000628407 0)
(1.00032 -0.000712769 0)
(1.0004 -0.000788407 0)
(1.00048 -0.000855273 0)
(1.00055 -0.000914315 0)
(1.00063 -0.000966841 0)
(1.0007 -0.00101405 0)
(1.00078 -0.00105683 0)
(1.00084 -0.00109577 0)
(1.00091 -0.00113124 0)
(1.00097 -0.00116349 0)
(1.00103 -0.00119273 0)
(1.00109 -0.00121915 0)
(1.00114 -0.00124297 0)
(1.00119 -0.0012644 0)
(1.00124 -0.00128367 0)
(1.00129 -0.00130099 0)
(1.00133 -0.00131656 0)
(1.00137 -0.00133059 0)
(1.0014 -0.00134324 0)
(1.00144 -0.00135467 0)
(1.00147 -0.00136502 0)
(1.0015 -0.00137441 0)
(1.00153 -0.00138294 0)
(1.00155 -0.0013907 0)
(1.00158 -0.00139779 0)
(1.0016 -0.00140425 0)
(1.00162 -0.00141017 0)
(1.00164 -0.00141559 0)
(1.00166 -0.00142055 0)
(1.00167 -0.00142511 0)
(1.00169 -0.0014293 0)
(1.0017 -0.00143314 0)
(1.00172 -0.00143668 0)
(1.00173 -0.00143994 0)
(1 -7.76983e-05 0)
(1.00002 -0.00023989 0)
(1.00006 -0.000380409 0)
(1.00012 -0.000503677 0)
(1.00018 -0.000617066 0)
(1.00026 -0.000722754 0)
(1.00033 -0.000819622 0)
(1.00041 -0.000906491 0)
(1.00049 -0.000983395 0)
(1.00057 -0.0010514 0)
(1.00065 -0.00111193 0)
(1.00073 -0.00116631 0)
(1.00081 -0.00121552 0)
(1.00088 -0.00126021 0)
(1.00095 -0.00130084 0)
(1.00101 -0.00133772 0)
(1.00108 -0.0013711 0)
(1.00113 -0.00140123 0)
(1.00119 -0.00142838 0)
(1.00124 -0.00145279 0)
(1.00129 -0.00147472 0)
(1.00134 -0.00149443 0)
(1.00138 -0.00151216 0)
(1.00142 -0.00152812 0)
(1.00146 -0.00154251 0)
(1.0015 -0.00155552 0)
(1.00153 -0.00156728 0)
(1.00156 -0.00157795 0)
(1.00159 -0.00158764 0)
(1.00161 -0.00159646 0)
(1.00164 -0.0016045 0)
(1.00166 -0.00161184 0)
(1.00168 -0.00161855 0)
(1.0017 -0.00162469 0)
(1.00172 -0.00163032 0)
(1.00174 -0.00163548 0)
(1.00176 -0.00164022 0)
(1.00177 -0.00164457 0)
(1.00178 -0.00164857 0)
(1.0018 -0.00165226 0)
(1 -8.79728e-05 0)
(1.00002 -0.000270212 0)
(1.00007 -0.000429126 0)
(1.00012 -0.00056924 0)
(1.00019 -0.000697987 0)
(1.00027 -0.000817582 0)
(1.00035 -0.000926989 0)
(1.00043 -0.00102514 0)
(1.00051 -0.00111217 0)
(1.0006 -0.00118925 0)
(1.00068 -0.00125792 0)
(1.00076 -0.00131957 0)
(1.00084 -0.00137527 0)
(1.00092 -0.00142576 0)
(1.00099 -0.00147156 0)
(1.00106 -0.00151304 0)
(1.00112 -0.00155052 0)
(1.00118 -0.00158432 0)
(1.00124 -0.00161474 0)
(1.0013 -0.00164207 0)
(1.00135 -0.00166663 0)
(1.0014 -0.00168869 0)
(1.00144 -0.00170852 0)
(1.00148 -0.00172638 0)
(1.00152 -0.00174248 0)
(1.00156 -0.00175702 0)
(1.00159 -0.00177017 0)
(1.00163 -0.00178209 0)
(1.00166 -0.00179292 0)
(1.00168 -0.00180277 0)
(1.00171 -0.00181174 0)
(1.00173 -0.00181992 0)
(1.00176 -0.0018274 0)
(1.00178 -0.00183424 0)
(1.0018 -0.0018405 0)
(1.00181 -0.00184625 0)
(1.00183 -0.00185151 0)
(1.00185 -0.00185635 0)
(1.00186 -0.0018608 0)
(1.00187 -0.00186489 0)
(1 -9.82982e-05 0)
(1.00002 -0.000300267 0)
(1.00007 -0.000477624 0)
(1.00013 -0.000634861 0)
(1.0002 -0.000779175 0)
(1.00028 -0.00091275 0)
(1.00036 -0.0010347 0)
(1.00045 -0.00114414 0)
(1.00054 -0.00124137 0)
(1.00062 -0.00132764 0)
(1.00071 -0.00140454 0)
(1.0008 -0.00147354 0)
(1.00088 -0.00153578 0)
(1.00096 -0.00159207 0)
(1.00103 -0.001643 0)
(1.0011 -0.00168903 0)
(1.00117 -0.00173055 0)
(1.00124 -0.00176793 0)
(1.0013 -0.00180154 0)
(1.00135 -0.00183172 0)
(1.00141 -0.00185882 0)
(1.00146 -0.00188315 0)
(1.00151 -0.00190503 0)
(1.00155 -0.00192472 0)
(1.00159 -0.00194246 0)
(1.00163 -0.00195848 0)
(1.00167 -0.00197296 0)
(1.0017 -0.00198609 0)
(1.00173 -0.001998 0)
(1.00176 -0.00200883 0)
(1.00179 -0.00201869 0)
(1.00181 -0.00202767 0)
(1.00183 -0.00203588 0)
(1.00186 -0.00204338 0)
(1.00188 -0.00205024 0)
(1.00189 -0.00205653 0)
(1.00191 -0.0020623 0)
(1.00193 -0.00206758 0)
(1.00194 -0.00207244 0)
(1.00196 -0.00207691 0)
(1 -0.000108728 0)
(1.00003 -0.000330168 0)
(1.00007 -0.000526108 0)
(1.00013 -0.000700844 0)
(1.00021 -0.000861042 0)
(1.00029 -0.00100877 0)
(1.00038 -0.00114337 0)
(1.00047 -0.00126422 0)
(1.00056 -0.00137181 0)
(1.00065 -0.00146746 0)
(1.00074 -0.0015528 0)
(1.00083 -0.00162934 0)
(1.00092 -0.00169825 0)
(1.001 -0.00176042 0)
(1.00108 -0.00181654 0)
(1.00115 -0.00186713 0)
(1.00123 -0.00191268 0)
(1.00129 -0.00195363 0)
(1.00136 -0.0019904 0)
(1.00142 -0.0020234 0)
(1.00147 -0.00205301 0)
(1.00153 -0.00207959 0)
(1.00158 -0.00210347 0)
(1.00162 -0.00212496 0)
(1.00167 -0.00214432 0)
(1.00171 -0.00216179 0)
(1.00174 -0.00217759 0)
(1.00178 -0.00219189 0)
(1.00181 -0.00220486 0)
(1.00184 -0.00221664 0)
(1.00187 -0.00222736 0)
(1.0019 -0.00223713 0)
(1.00192 -0.00224604 0)
(1.00194 -0.00225417 0)
(1.00196 -0.00226161 0)
(1.00198 -0.00226842 0)
(1.002 -0.00227466 0)
(1.00202 -0.00228038 0)
(1.00203 -0.00228563 0)
(1.00205 -0.00229045 0)
(1 -0.000119217 0)
(1.00003 -0.000359782 0)
(1.00007 -0.000574378 0)
(1.00014 -0.000766947 0)
(1.00022 -0.000943306 0)
(1.0003 -0.00110532 0)
(1.00039 -0.00125263 0)
(1.00049 -0.00138499 0)
(1.00058 -0.00150308 0)
(1.00068 -0.0016083 0)
(1.00078 -0.00170227 0)
(1.00087 -0.0017865 0)
(1.00096 -0.0018622 0)
(1.00105 -0.00193034 0)
(1.00113 -0.00199167 0)
(1.00121 -0.00204682 0)
(1.00129 -0.00209638 0)
(1.00136 -0.00214085 0)
(1.00142 -0.00218074 0)
(1.00149 -0.0022165 0)
(1.00155 -0.00224856 0)
(1.0016 -0.00227734 0)
(1.00165 -0.00230318 0)
(1.0017 -0.00232643 0)
(1.00175 -0.00234736 0)
(1.00179 -0.00236624 0)
(1.00183 -0.0023833 0)
(1.00186 -0.00239873 0)
(1.0019 -0.00241272 0)
(1.00193 -0.00242542 0)
(1.00196 -0.00243696 0)
(1.00199 -0.00244747 0)
(1.00201 -0.00245705 0)
(1.00204 -0.00246578 0)
(1.00206 -0.00247376 0)
(1.00208 -0.00248106 0)
(1.0021 -0.00248774 0)
(1.00212 -0.00249386 0)
(1.00213 -0.00249947 0)
(1.00215 -0.00250462 0)
(1 -0.00012981 0)
(1.00003 -0.000389203 0)
(1.00008 -0.000622603 0)
(1.00014 -0.000833427 0)
(1.00022 -0.00102631 0)
(1.00031 -0.00120283 0)
(1.00041 -0.00136302 0)
(1.00051 -0.00150706 0)
(1.00061 -0.00163589 0)
(1.00071 -0.00175096 0)
(1.00081 -0.00185385 0)
(1.00091 -0.00194602 0)
(1.001 -0.00202873 0)
(1.0011 -0.00210297 0)
(1.00118 -0.00216962 0)
(1.00127 -0.00222941 0)
(1.00135 -0.002283 0)
(1.00142 -0.00233101 0)
(1.00149 -0.00237402 0)
(1.00156 -0.00241254 0)
(1.00162 -0.00244706 0)
(1.00168 -0.00247802 0)
(1.00173 -0.00250581 0)
(1.00178 -0.00253079 0)
(1.00183 -0.00255329 0)
(1.00188 -0.00257356 0)
(1.00192 -0.00259187 0)
(1.00196 -0.00260842 0)
(1.00199 -0.00262341 0)
(1.00203 -0.002637 0)
(1.00206 -0.00264935 0)
(1.00209 -0.00266057 0)
(1.00211 -0.00267079 0)
(1.00214 -0.0026801 0)
(1.00216 -0.0026886 0)
(1.00218 -0.00269637 0)
(1.0022 -0.00270346 0)
(1.00222 -0.00270996 0)
(1.00224 -0.00271591 0)
(1.00225 -0.00272136 0)
(1 -0.000140446 0)
(1.00003 -0.000418252 0)
(1.00008 -0.000670512 0)
(1.00015 -0.000899943 0)
(1.00023 -0.00110966 0)
(1.00033 -0.00130086 0)
(1.00043 -0.00147403 0)
(1.00053 -0.00162991 0)
(1.00064 -0.00176971 0)
(1.00074 -0.00189489 0)
(1.00085 -0.00200697 0)
(1.00095 -0.00210735 0)
(1.00105 -0.00219725 0)
(1.00115 -0.00227776 0)
(1.00124 -0.00234982 0)
(1.00133 -0.00241429 0)
(1.00141 -0.00247195 0)
(1.00149 -0.00252352 0)
(1.00157 -0.00256963 0)
(1.00164 -0.0026109 0)
(1.0017 -0.00264786 0)
(1.00176 -0.00268098 0)
(1.00182 -0.0027107 0)
(1.00187 -0.0027374 0)
(1.00192 -0.00276143 0)
(1.00197 -0.00278307 0)
(1.00201 -0.0028026 0)
(1.00206 -0.00282024 0)
(1.00209 -0.0028362 0)
(1.00213 -0.00285065 0)
(1.00216 -0.00286377 0)
(1.00219 -0.00287568 0)
(1.00222 -0.00288651 0)
(1.00225 -0.00289637 0)
(1.00227 -0.00290536 0)
(1.00229 -0.00291356 0)
(1.00231 -0.00292104 0)
(1.00233 -0.00292789 0)
(1.00235 -0.00293415 0)
(1.00237 -0.00293988 0)
(1 -0.000151154 0)
(1.00003 -0.000446997 0)
(1.00008 -0.000718226 0)
(1.00015 -0.00096668 0)
(1.00024 -0.00119361 0)
(1.00034 -0.00139973 0)
(1.00044 -0.00158608 0)
(1.00055 -0.00175403 0)
(1.00066 -0.0019051 0)
(1.00077 -0.00204076 0)
(1.00089 -0.0021624 0)
(1.00099 -0.00227131 0)
(1.0011 -0.0023687 0)
(1.0012 -0.00245569 0)
(1.0013 -0.00253334 0)
(1.00139 -0.00260263 0)
(1.00148 -0.00266445 0)
(1.00156 -0.00271963 0)
(1.00164 -0.00276892 0)
(1.00172 -0.00281297 0)
(1.00179 -0.00285239 0)
(1.00185 -0.00288769 0)
(1.00191 -0.00291936 0)
(1.00197 -0.00294779 0)
(1.00202 -0.00297335 0)
(1.00207 -0.00299636 0)
(1.00212 -0.0030171 0)
(1.00216 -0.00303583 0)
(1.0022 -0.00305275 0)
(1.00224 -0.00306806 0)
(1.00227 -0.00308193 0)
(1.0023 -0.00309451 0)
(1.00233 -0.00310594 0)
(1.00236 -0.00311633 0)
(1.00239 -0.00312578 0)
(1.00241 -0.00313439 0)
(1.00243 -0.00314225 0)
(1.00245 -0.00314942 0)
(1.00247 -0.00315597 0)
(1.00249 -0.00316196 0)
(1 -0.000161864 0)
(1.00003 -0.000475228 0)
(1.00008 -0.000765423 0)
(1.00016 -0.00103323 0)
(1.00025 -0.00127768 0)
(1.00035 -0.0014989 0)
(1.00046 -0.00169859 0)
(1.00057 -0.00187881 0)
(1.00069 -0.00204144 0)
(1.00081 -0.00218792 0)
(1.00092 -0.00231949 0)
(1.00104 -0.00243728 0)
(1.00115 -0.00254245 0)
(1.00126 -0.00263616 0)
(1.00136 -0.00271957 0)
(1.00146 -0.0027938 0)
(1.00155 -0.00285989 0)
(1.00164 -0.00291875 0)
(1.00172 -0.00297126 0)
(1.0018 -0.00301813 0)
(1.00187 -0.00306004 0)
(1.00194 -0.00309755 0)
(1.00201 -0.00313117 0)
(1.00207 -0.00316134 0)
(1.00212 -0.00318844 0)
(1.00218 -0.00321282 0)
(1.00222 -0.00323478 0)
(1.00227 -0.00325457 0)
(1.00231 -0.00327244 0)
(1.00235 -0.00328859 0)
(1.00239 -0.0033032 0)
(1.00242 -0.00331643 0)
(1.00245 -0.00332843 0)
(1.00248 -0.00333932 0)
(1.00251 -0.00334921 0)
(1.00253 -0.00335821 0)
(1.00256 -0.00336641 0)
(1.00258 -0.00337388 0)
(1.0026 -0.00338069 0)
(1.00262 -0.00338691 0)
(1 -0.000172591 0)
(1.00003 -0.000502986 0)
(1.00008 -0.00081217 0)
(1.00016 -0.00109969 0)
(1.00025 -0.00136202 0)
(1.00036 -0.00159859 0)
(1.00048 -0.00181182 0)
(1.00059 -0.00200459 0)
(1.00072 -0.00217915 0)
(1.00084 -0.00233689 0)
(1.00096 -0.00247883 0)
(1.00108 -0.00260592 0)
(1.0012 -0.00271924 0)
(1.00131 -0.00281998 0)
(1.00142 -0.00290942 0)
(1.00152 -0.0029888 0)
(1.00162 -0.00305931 0)
(1.00172 -0.003122 0)
(1.0018 -0.00317783 0)
(1.00189 -0.00322762 0)
(1.00197 -0.00327209 0)
(1.00204 -0.00331187 0)
(1.00211 -0.0033475 0)
(1.00217 -0.00337945 0)
(1.00223 -0.00340813 0)
(1.00228 -0.0034339 0)
(1.00234 -0.00345709 0)
(1.00238 -0.00347797 0)
(1.00243 -0.00349679 0)
(1.00247 -0.00351378 0)
(1.00251 -0.00352912 0)
(1.00254 -0.00354299 0)
(1.00258 -0.00355555 0)
(1.00261 -0.00356693 0)
(1.00264 -0.00357726 0)
(1.00266 -0.00358663 0)
(1.00269 -0.00359515 0)
(1.00271 -0.0036029 0)
(1.00273 -0.00360996 0)
(1.00275 -0.0036164 0)
(1 -0.000183257 0)
(1.00003 -0.000530043 0)
(1.00009 -0.000858118 0)
(1.00016 -0.00116562 0)
(1.00026 -0.00144608 0)
(1.00037 -0.00169817 0)
(1.00049 -0.00192511 0)
(1.00061 -0.00213068 0)
(1.00074 -0.00231752 0)
(1.00087 -0.00248694 0)
(1.001 -0.00263971 0)
(1.00112 -0.00277654 0)
(1.00125 -0.0028984 0)
(1.00137 -0.0030065 0)
(1.00148 -0.00310224 0)
(1.00159 -0.00318699 0)
(1.0017 -0.0032621 0)
(1.0018 -0.00332876 0)
(1.00189 -0.00338804 0)
(1.00198 -0.00344085 0)
(1.00206 -0.00348798 0)
(1.00214 -0.0035301 0)
(1.00221 -0.0035678 0)
(1.00228 -0.00360158 0)
(1.00234 -0.00363187 0)
(1.0024 -0.00365907 0)
(1.00245 -0.00368351 0)
(1.0025 -0.00370549 0)
(1.00255 -0.00372528 0)
(1.00259 -0.0037431 0)
(1.00263 -0.00375918 0)
(1.00267 -0.00377369 0)
(1.00271 -0.0037868 0)
(1.00274 -0.00379865 0)
(1.00277 -0.00380939 0)
(1.0028 -0.00381912 0)
(1.00283 -0.00382794 0)
(1.00285 -0.00383596 0)
(1.00287 -0.00384324 0)
(1.00289 -0.00384987 0)
(1 -0.000193864 0)
(1.00003 -0.000556415 0)
(1.00009 -0.000903285 0)
(1.00017 -0.00123103 0)
(1.00027 -0.00152992 0)
(1.00038 -0.00179775 0)
(1.0005 -0.00203861 0)
(1.00063 -0.00225728 0)
(1.00076 -0.00245681 0)
(1.0009 -0.00263842 0)
(1.00103 -0.00280255 0)
(1.00116 -0.00294962 0)
(1.0013 -0.00308049 0)
(1.00142 -0.00319637 0)
(1.00154 -0.00329875 0)
(1.00166 -0.00338918 0)
(1.00177 -0.00346914 0)
(1.00187 -0.00354 0)
(1.00197 -0.00360291 0)
(1.00207 -0.0036589 0)
(1.00215 -0.00370883 0)
(1.00224 -0.00375341 0)
(1.00231 -0.00379329 0)
(1.00238 -0.00382898 0)
(1.00245 -0.00386097 0)
(1.00251 -0.00388965 0)
(1.00257 -0.00391539 0)
(1.00262 -0.00393851 0)
(1.00268 -0.00395929 0)
(1.00272 -0.00397798 0)
(1.00277 -0.0039948 0)
(1.00281 -0.00400995 0)
(1.00284 -0.00402362 0)
(1.00288 -0.00403595 0)
(1.00291 -0.00404709 0)
(1.00294 -0.00405717 0)
(1.00297 -0.00406629 0)
(1.00299 -0.00407455 0)
(1.00302 -0.00408205 0)
(1.00304 -0.00408886 0)
(1 -0.00020433 0)
(1.00003 -0.000581868 0)
(1.00009 -0.000947308 0)
(1.00017 -0.00129546 0)
(1.00027 -0.00161297 0)
(1.00039 -0.00189667 0)
(1.00052 -0.00215162 0)
(1.00065 -0.00238364 0)
(1.00079 -0.00259627 0)
(1.00093 -0.00279055 0)
(1.00107 -0.00296657 0)
(1.0012 -0.00312442 0)
(1.00134 -0.00326478 0)
(1.00147 -0.00338887 0)
(1.0016 -0.00349828 0)
(1.00173 -0.0035947 0)
(1.00184 -0.00367981 0)
(1.00195 -0.0037551 0)
(1.00206 -0.00382187 0)
(1.00216 -0.00388123 0)
(1.00225 -0.00393411 0)
(1.00234 -0.0039813 0)
(1.00242 -0.00402347 0)
(1.00249 -0.00406118 0)
(1.00257 -0.00409495 0)
(1.00263 -0.00412519 0)
(1.00269 -0.0041523 0)
(1.00275 -0.0041766 0)
(1.0028 -0.00419841 0)
(1.00285 -0.00421799 0)
(1.0029 -0.00423557 0)
(1.00294 -0.00425139 0)
(1.00298 -0.00426561 0)
(1.00302 -0.00427842 0)
(1.00305 -0.00428997 0)
(1.00309 -0.00430038 0)
(1.00312 -0.00430979 0)
(1.00314 -0.00431829 0)
(1.00317 -0.00432599 0)
(1.00319 -0.00433296 0)
(1 -0.000214649 0)
(1.00003 -0.0006064 0)
(1.00009 -0.000990169 0)
(1.00017 -0.00135886 0)
(1.00028 -0.00169518 0)
(1.0004 -0.00199491 0)
(1.00053 -0.00226414 0)
(1.00066 -0.00250984 0)
(1.00081 -0.00273601 0)
(1.00095 -0.00294352 0)
(1.0011 -0.00313203 0)
(1.00124 -0.00330125 0)
(1.00139 -0.00345167 0)
(1.00153 -0.00358447 0)
(1.00166 -0.00370136 0)
(1.00179 -0.00380419 0)
(1.00191 -0.0038948 0)
(1.00203 -0.00397484 0)
(1.00214 -0.00404574 0)
(1.00225 -0.00410872 0)
(1.00235 -0.00416478 0)
(1.00244 -0.00421477 0)
(1.00252 -0.0042594 0)
(1.00261 -0.00429929 0)
(1.00268 -0.00433496 0)
(1.00275 -0.00436688 0)
(1.00282 -0.00439544 0)
(1.00288 -0.004421 0)
(1.00294 -0.0044439 0)
(1.00299 -0.00446442 0)
(1.00304 -0.00448281 0)
(1.00308 -0.00449931 0)
(1.00313 -0.00451412 0)
(1.00317 -0.00452742 0)
(1.0032 -0.00453938 0)
(1.00324 -0.00455014 0)
(1.00327 -0.00455984 0)
(1.0033 -0.00456858 0)
(1.00332 -0.00457646 0)
(1.00335 -0.00458359 0)
(1 -0.000224738 0)
(1.00003 -0.000629787 0)
(1.00009 -0.00103151 0)
(1.00017 -0.00142075 0)
(1.00028 -0.00177597 0)
(1.0004 -0.0020918 0)
(1.00053 -0.00237543 0)
(1.00068 -0.00263508 0)
(1.00082 -0.00287522 0)
(1.00097 -0.00309649 0)
(1.00112 -0.00329809 0)
(1.00128 -0.00347929 0)
(1.00143 -0.00364035 0)
(1.00157 -0.00378242 0)
(1.00172 -0.00390729 0)
(1.00185 -0.00401697 0)
(1.00198 -0.00411348 0)
(1.00211 -0.00419862 0)
(1.00223 -0.00427397 0)
(1.00234 -0.00434085 0)
(1.00244 -0.00440034 0)
(1.00254 -0.00445336 0)
(1.00263 -0.00450066 0)
(1.00272 -0.00454289 0)
(1.0028 -0.00458062 0)
(1.00287 -0.00461433 0)
(1.00294 -0.00464446 0)
(1.00301 -0.00467138 0)
(1.00307 -0.00469545 0)
(1.00313 -0.00471697 0)
(1.00318 -0.00473621 0)
(1.00323 -0.00475344 0)
(1.00327 -0.00476886 0)
(1.00331 -0.00478267 0)
(1.00335 -0.00479506 0)
(1.00339 -0.00480618 0)
(1.00342 -0.00481616 0)
(1.00345 -0.00482514 0)
(1.00348 -0.00483322 0)
(1.00351 -0.0048405 0)
(1.00001 -0.000234583 0)
(1.00003 -0.000652015 0)
(1.00009 -0.00107129 0)
(1.00017 -0.00148106 0)
(1.00028 -0.00185524 0)
(1.0004 -0.00218724 0)
(1.00054 -0.00248543 0)
(1.00068 -0.00275932 0)
(1.00083 -0.00301387 0)
(1.00099 -0.00324949 0)
(1.00115 -0.00346483 0)
(1.00131 -0.00365868 0)
(1.00146 -0.00383104 0)
(1.00162 -0.00398299 0)
(1.00177 -0.0041164 0)
(1.00191 -0.00423345 0)
(1.00205 -0.00433633 0)
(1.00218 -0.00442702 0)
(1.00231 -0.00450722 0)
(1.00242 -0.00457835 0)
(1.00253 -0.00464159 0)
(1.00264 -0.00469792 0)
(1.00274 -0.00474814 0)
(1.00283 -0.00479294 0)
(1.00291 -0.00483292 0)
(1.00299 -0.00486859 0)
(1.00307 -0.00490043 0)
(1.00314 -0.00492883 0)
(1.0032 -0.00495417 0)
(1.00326 -0.00497678 0)
(1.00332 -0.00499696 0)
(1.00337 -0.00501497 0)
(1.00342 -0.00503105 0)
(1.00347 -0.00504542 0)
(1.00351 -0.00505827 0)
(1.00355 -0.00506977 0)
(1.00358 -0.00508006 0)
(1.00361 -0.00508929 0)
(1.00365 -0.00509757 0)
(1.00367 -0.005105 0)
(1.00001 -0.000244107 0)
(1.00003 -0.000672878 0)
(1.00008 -0.00110917 0)
(1.00017 -0.00153932 0)
(1.00028 -0.0019324 0)
(1.0004 -0.00228055 0)
(1.00054 -0.00259338 0)
(1.00069 -0.00288175 0)
(1.00084 -0.00315115 0)
(1.001 -0.00340166 0)
(1.00117 -0.00363139 0)
(1.00133 -0.00383857 0)
(1.0015 -0.0040229 0)
(1.00166 -0.00418537 0)
(1.00182 -0.00432794 0)
(1.00197 -0.00445293 0)
(1.00211 -0.00456271 0)
(1.00225 -0.00465942 0)
(1.00238 -0.0047449 0)
(1.00251 -0.00482069 0)
(1.00263 -0.00488804 0)
(1.00274 -0.004948 0)
(1.00284 -0.00500143 0)
(1.00294 -0.00504906 0)
(1.00303 -0.00509151 0)
(1.00311 -0.00512935 0)
(1.00319 -0.00516307 0)
(1.00327 -0.0051931 0)
(1.00334 -0.00521984 0)
(1.0034 -0.00524365 0)
(1.00346 -0.00526485 0)
(1.00352 -0.00528372 0)
(1.00357 -0.00530052 0)
(1.00362 -0.0053155 0)
(1.00366 -0.00532884 0)
(1.0037 -0.00534075 0)
(1.00374 -0.00535138 0)
(1.00378 -0.00536087 0)
(1.00381 -0.00536937 0)
(1.00384 -0.00537697 0)
(1.00001 -0.000253294 0)
(1.00003 -0.000692364 0)
(1.00008 -0.00114511 0)
(1.00016 -0.00159543 0)
(1.00027 -0.00200733 0)
(1.0004 -0.0023716 0)
(1.00054 -0.00269914 0)
(1.00069 -0.00300224 0)
(1.00085 -0.0032869 0)
(1.00101 -0.00355291 0)
(1.00118 -0.00379769 0)
(1.00135 -0.00401893 0)
(1.00152 -0.00421596 0)
(1.00169 -0.00438966 0)
(1.00186 -0.00454206 0)
(1.00202 -0.00467563 0)
(1.00217 -0.00479291 0)
(1.00232 -0.0048962 0)
(1.00246 -0.00498748 0)
(1.00259 -0.0050684 0)
(1.00271 -0.0051403 0)
(1.00283 -0.00520428 0)
(1.00294 -0.00526127 0)
(1.00304 -0.00531203 0)
(1.00314 -0.00535725 0)
(1.00323 -0.0053975 0)
(1.00332 -0.00543331 0)
(1.0034 -0.00546515 0)
(1.00347 -0.00549346 0)
(1.00354 -0.0055186 0)
(1.0036 -0.00554093 0)
(1.00366 -0.00556076 0)
(1.00372 -0.00557838 0)
(1.00377 -0.00559403 0)
(1.00382 -0.00560793 0)
(1.00386 -0.0056203 0)
(1.0039 -0.0056313 0)
(1.00394 -0.0056411 0)
(1.00398 -0.00564983 0)
(1.00401 -0.00565762 0)
(1.00001 -0.000262073 0)
(1.00003 -0.000710295 0)
(1.00008 -0.0011788 0)
(1.00016 -0.00164896 0)
(1.00027 -0.00207947 0)
(1.0004 -0.00245972 0)
(1.00054 -0.00280197 0)
(1.00069 -0.00311999 0)
(1.00085 -0.00342031 0)
(1.00102 -0.00370235 0)
(1.00119 -0.00396286 0)
(1.00137 -0.00419886 0)
(1.00154 -0.00440933 0)
(1.00172 -0.00459501 0)
(1.00189 -0.00475796 0)
(1.00206 -0.0049008 0)
(1.00222 -0.00502623 0)
(1.00237 -0.00513671 0)
(1.00252 -0.00523436 0)
(1.00266 -0.00532093 0)
(1.00279 -0.00539786 0)
(1.00292 -0.00546631 0)
(1.00304 -0.00552725 0)
(1.00315 -0.00558151 0)
(1.00325 -0.0056298 0)
(1.00335 -0.00567274 0)
(1.00344 -0.00571089 0)
(1.00352 -0.00574477 0)
(1.0036 -0.00577482 0)
(1.00368 -0.00580146 0)
(1.00375 -0.00582507 0)
(1.00381 -0.00584599 0)
(1.00387 -0.00586451 0)
(1.00392 -0.00588092 0)
(1.00398 -0.00589546 0)
(1.00402 -0.00590835 0)
(1.00407 -0.00591978 0)
(1.00411 -0.00592992 0)
(1.00415 -0.00593892 0)
(1.00418 -0.00594693 0)
(1.00001 -0.00027043 0)
(1.00003 -0.000726666 0)
(1.00007 -0.00121021 0)
(1.00015 -0.00169981 0)
(1.00026 -0.00214869 0)
(1.00039 -0.00254475 0)
(1.00053 -0.00290169 0)
(1.00068 -0.00323481 0)
(1.00084 -0.00355116 0)
(1.00101 -0.00384978 0)
(1.00119 -0.00412667 0)
(1.00137 -0.00437819 0)
(1.00156 -0.00460288 0)
(1.00174 -0.00480132 0)
(1.00192 -0.00497561 0)
(1.00209 -0.00512847 0)
(1.00226 -0.00526277 0)
(1.00243 -0.00538113 0)
(1.00258 -0.0054858 0)
(1.00273 -0.00557863 0)
(1.00287 -0.00566114 0)
(1.003 -0.00573457 0)
(1.00313 -0.00579993 0)
(1.00325 -0.0058581 0)
(1.00336 -0.00590984 0)
(1.00346 -0.0059558 0)
(1.00356 -0.0059966 0)
(1.00365 -0.00603276 0)
(1.00373 -0.00606479 0)
(1.00381 -0.00609313 0)
(1.00388 -0.00611819 0)
(1.00395 -0.00614034 0)
(1.00402 -0.00615991 0)
(1.00408 -0.00617719 0)
(1.00413 -0.00619246 0)
(1.00418 -0.00620595 0)
(1.00423 -0.00621788 0)
(1.00427 -0.00622843 0)
(1.00431 -0.00623776 0)
(1.00435 -0.00624602 0)
(1.00001 -0.000278305 0)
(1.00003 -0.000741334 0)
(1.00007 -0.00123909 0)
(1.00015 -0.00174762 0)
(1.00025 -0.00221449 0)
(1.00038 -0.00262611 0)
(1.00052 -0.00299762 0)
(1.00067 -0.00334594 0)
(1.00083 -0.00367864 0)
(1.00101 -0.00399433 0)
(1.00119 -0.00428825 0)
(1.00137 -0.00455601 0)
(1.00156 -0.0047957 0)
(1.00175 -0.00500771 0)
(1.00194 -0.00519413 0)
(1.00212 -0.00535782 0)
(1.0023 -0.00550177 0)
(1.00247 -0.00562875 0)
(1.00263 -0.00574115 0)
(1.00279 -0.0058409 0)
(1.00294 -0.00592961 0)
(1.00308 -0.00600857 0)
(1.00321 -0.00607887 0)
(1.00334 -0.00614142 0)
(1.00346 -0.00619703 0)
(1.00357 -0.0062464 0)
(1.00367 -0.00629017 0)
(1.00377 -0.00632893 0)
(1.00386 -0.0063632 0)
(1.00394 -0.00639348 0)
(1.00402 -0.00642019 0)
(1.00409 -0.00644375 0)
(1.00416 -0.00646451 0)
(1.00422 -0.00648281 0)
(1.00428 -0.00649892 0)
(1.00434 -0.00651312 0)
(1.00439 -0.00652563 0)
(1.00444 -0.00653665 0)
(1.00448 -0.00654638 0)
(1.00452 -0.00655495 0)
(1.00001 -0.000285687 0)
(1.00003 -0.000754311 0)
(1.00006 -0.00126542 0)
(1.00014 -0.00179232 0)
(1.00024 -0.00227674 0)
(1.00036 -0.00270361 0)
(1.0005 -0.00308957 0)
(1.00065 -0.00345315 0)
(1.00082 -0.00380248 0)
(1.00099 -0.00413573 0)
(1.00118 -0.00444729 0)
(1.00137 -0.00473201 0)
(1.00156 -0.0049875 0)
(1.00176 -0.00521392 0)
(1.00195 -0.00541335 0)
(1.00214 -0.00558871 0)
(1.00233 -0.00574315 0)
(1.00251 -0.00587957 0)
(1.00268 -0.00600047 0)
(1.00284 -0.00610787 0)
(1.003 -0.00620347 0)
(1.00315 -0.00628861 0)
(1.00329 -0.00636444 0)
(1.00342 -0.00643191 0)
(1.00355 -0.00649187 0)
(1.00367 -0.00654508 0)
(1.00378 -0.00659222 0)
(1.00388 -0.00663392 0)
(1.00398 -0.00667075 0)
(1.00407 -0.00670323 0)
(1.00415 -0.00673184 0)
(1.00423 -0.00675703 0)
(1.0043 -0.00677918 0)
(1.00437 -0.00679864 0)
(1.00443 -0.00681575 0)
(1.00449 -0.00683077 0)
(1.00455 -0.00684398 0)
(1.0046 -0.00685558 0)
(1.00464 -0.00686577 0)
(1.00469 -0.00687474 0)
(1.00001 -0.000292529 0)
(1.00003 -0.000765491 0)
(1.00006 -0.001289 0)
(1.00013 -0.00183358 0)
(1.00023 -0.00233504 0)
(1.00035 -0.00277675 0)
(1.00048 -0.00317693 0)
(1.00063 -0.00355576 0)
(1.00079 -0.00392194 0)
(1.00097 -0.00427314 0)
(1.00116 -0.00460291 0)
(1.00135 -0.0049053 0)
(1.00155 -0.00517737 0)
(1.00175 -0.00541904 0)
(1.00195 -0.00563234 0)
(1.00215 -0.00582026 0)
(1.00234 -0.00598608 0)
(1.00253 -0.00613281 0)
(1.00271 -0.00626303 0)
(1.00288 -0.00637889 0)
(1.00305 -0.00648212 0)
(1.00321 -0.00657414 0)
(1.00336 -0.00665614 0)
(1.0035 -0.00672912 0)
(1.00363 -0.00679398 0)
(1.00376 -0.00685152 0)
(1.00387 -0.00690247 0)
(1.00399 -0.0069475 0)
(1.00409 -0.00698724 0)
(1.00419 -0.00702224 0)
(1.00428 -0.00705304 0)
(1.00436 -0.00708009 0)
(1.00444 -0.00710384 0)
(1.00451 -0.00712468 0)
(1.00458 -0.00714294 0)
(1.00464 -0.00715895 0)
(1.0047 -0.00717297 0)
(1.00475 -0.00718526 0)
(1.0048 -0.00719603 0)
(1.00485 -0.00720547 0)
(1.00001 -0.000298827 0)
(1.00002 -0.000774906 0)
(1.00005 -0.00130986 0)
(1.00011 -0.00187139 0)
(1.00021 -0.00238929 0)
(1.00033 -0.0028454 0)
(1.00046 -0.00325953 0)
(1.0006 -0.00365355 0)
(1.00077 -0.00403672 0)
(1.00094 -0.00440625 0)
(1.00113 -0.00475477 0)
(1.00132 -0.00507549 0)
(1.00153 -0.00536492 0)
(1.00173 -0.00562268 0)
(1.00194 -0.00585075 0)
(1.00215 -0.00605217 0)
(1.00235 -0.0062303 0)
(1.00254 -0.00638825 0)
(1.00273 -0.00652872 0)
(1.00292 -0.00665389 0)
(1.00309 -0.00676558 0)
(1.00326 -0.00686524 0)
(1.00341 -0.00695413 0)